 Gaussian 09, Revision E.01,
 Gaussian 09:  ES64L-G09RevE.01 30-Nov-2015

 ----------------------------------------------------------------------
 # opt=(calcfc,ts,noeigentest,maxcycle=1000,cartesian) b3lyp 6-31g(d) f
 req
 ----------------------------------------------------------------------

 ------------------------------------------
 ./3/glo_1w_beta_boat3_b3lyp_631Gd_iopt.out
 ------------------------------------------
 Symbolic Z-matrix:
 Charge =  0 Multiplicity = 1

 SCF Done:  E(RB3LYP) =  -839.980408981     A.U. after   14 cycles
 Optimization completed.
    -- Stationary point found.
 Normal termination of Gaussian 09 at Tue Jan 31 06:53:16 2017.

 --------------------------------------------------------------------
 #N Geom=AllCheck Guess=TCheck SCRF=Check GenChk RB3LYP/6-31G(d) Freq
 --------------------------------------------------------------------

 Structure from the checkpoint file:  "/scratch/10501387.yak.local/Gau-32220.chk"
 ------------------------------------------
 ./3/glo_1w_beta_boat3_b3lyp_631Gd_iopt.out
 ------------------------------------------
 Charge =  0 Multiplicity = 1

                         Standard orientation:
 ---------------------------------------------------------------------
 Center     Atomic      Atomic             Coordinates (Angstroms)
 Number     Number       Type             X           Y           Z
 ---------------------------------------------------------------------
      1          6           0        0.110089    1.408189    1.024730
      2          6           0        0.767580   -0.906380    0.027000
      3          8           0       -1.601640   -0.075782    0.146750
      4          6           0       -0.722600   -1.236701    0.158190
      5          6           0       -1.060341    1.237569    0.052760
      6          6           0        1.214709    0.357430    0.792520
      7          1           0       -0.902109   -1.719551    1.128180
      8          1           0        1.571169    0.038640    1.778190
      9          1           0        0.942280   -0.721750   -1.043550
     10          1           0       -1.880192    1.895278    0.385110
     11          1           0        0.530678    2.415390    0.877580
     12          6           0       -0.728932    1.654509   -1.394520
     13          1           0       -1.531631    1.293348   -2.051930
     14          1           0        0.208719    1.209829   -1.733550
     15          8           0       -1.055149   -2.061361   -0.904090
     16          1           0       -1.989549   -2.332582   -0.770960
     17          8           0       -0.542063    3.063549   -1.490690
     18          1           0       -1.414783    3.483338   -1.439690
     19          8           0        1.474411   -2.044700    0.462390
     20          1           0        2.365661   -2.008209    0.047440
     21          8           0        2.304699    0.913281    0.023660
     22          1           0        2.709038    1.626001    0.544160
     23          8           0       -0.309911    1.218189    2.374080
     24          1           0       -1.125282    1.724659    2.514140
     25          8           0       -3.743349   -1.858753   -0.172720
     26          1           0       -3.932319   -2.169033    0.726010
     27          1           0       -3.316400   -0.988183   -0.045050
     28          8           0        3.849550   -1.288338   -0.763740
     29          1           0        3.770140   -1.368788   -1.726330
     30          1           0        3.499170   -0.394758   -0.558960
 ---------------------------------------------------------------------

 SCF Done:  E(RB3LYP) =  -839.980408981     A.U. after    1 cycles

 The electronic state is 1-A.
 Alpha  occ. eigenvalues --  -19.18139 -19.16407 -19.16102 -19.16042 -19.15172
 Alpha  occ. eigenvalues --  -19.14757 -19.13162 -19.12009 -10.28136 -10.25467
 Alpha  occ. eigenvalues --  -10.25012 -10.24698 -10.24050 -10.23583  -1.06692
 Alpha  occ. eigenvalues --   -1.04869  -1.03337  -1.03071  -1.00911  -1.00811
 Alpha  occ. eigenvalues --   -0.99921  -0.99003  -0.78712  -0.76200  -0.69659
 Alpha  occ. eigenvalues --   -0.65068  -0.64103  -0.56339  -0.55678  -0.53886
 Alpha  occ. eigenvalues --   -0.53157  -0.53098  -0.51579  -0.50657  -0.49952
 Alpha  occ. eigenvalues --   -0.48919  -0.46025  -0.45406  -0.43695  -0.42611
 Alpha  occ. eigenvalues --   -0.41731  -0.39919  -0.39214  -0.39080  -0.37527
 Alpha  occ. eigenvalues --   -0.36481  -0.35622  -0.34933  -0.33833  -0.32475
 Alpha  occ. eigenvalues --   -0.30720  -0.30163  -0.29633  -0.29504  -0.28357
 Alpha  occ. eigenvalues --   -0.27437  -0.25985  -0.24959
 Alpha virt. eigenvalues --    0.04616   0.05128   0.05570   0.06727   0.07522
 Alpha virt. eigenvalues --    0.10264   0.10547   0.12639   0.13836   0.14290
 Alpha virt. eigenvalues --    0.15763   0.16307   0.16889   0.17623   0.18474

 Mulliken charges:
               1
     1  C    0.121473
     2  C    0.079460
     3  O   -0.543254
     4  C    0.344756
     5  C    0.091903
     6  C    0.094461
     7  H    0.134645
     8  H    0.173558
     9  H    0.135548
    10  H    0.107287
    11  H    0.132820
    12  C   -0.076072
    13  H    0.148573
    14  H    0.171780
    15  O   -0.631715
    16  H    0.422294
    17  O   -0.611819
    18  H    0.392383
    19  O   -0.665092
    20  H    0.428418
    21  O   -0.652769
    22  H    0.408905
    23  O   -0.636057
    24  H    0.392852
    25  O   -0.796148
    26  H    0.395690
    27  H    0.418830
    28  O   -0.805512
    29  H    0.397156
    30  H    0.425644
 Sum of Mulliken charges =  -0.00000

 Dipole moment (field-independent basis, Debye):
    X=             -1.7525    Y=              4.8015    Z=              1.0135  Tot=              5.2108
 Quadrupole moment (field-independent basis, Debye-Ang):
   XX=            -79.2477   YY=            -85.3689   ZZ=            -82.5545
   XY=             -0.6592   XZ=            -10.0422   YZ=              1.9067

  Exact polarizability: 100.762  -1.276  99.146  -3.469   1.035  84.473
 Approx polarizability: 129.872  -1.323 133.340  -6.394   1.009 121.289

 ******    1 imaginary frequencies (negative Signs) ******

                      1                      2                      3
                      A                      A                      A
 Frequencies --    -45.2456                38.7760                41.6093
 Red. masses --      6.4946                 5.7508                 5.4125
 Frc consts  --      0.0078                 0.0051                 0.0055
 IR Inten    --      3.4769                 1.5873                 2.0215

                      4                      5                      6
                      A                      A                      A
 Frequencies --     62.0447                83.3946                98.6505
 Red. masses --      5.0686                 5.9990                 3.7685
 Frc consts  --      0.0115                 0.0246                 0.0216
 IR Inten    --      2.0407                 2.2016                 7.8530

                      7                      8                      9
                      A                      A                      A
 Frequencies --    132.0606               164.1423               183.1019
 Red. masses --      4.4488                 3.5464                 6.2715
 Frc consts  --      0.0457                 0.0563                 0.1239
 IR Inten    --      8.7351                 0.0917                 6.3460

                     10                     11                     12
                      A                      A                      A
 Frequencies --    193.6589               211.0777               233.5686
 Red. masses --      5.0979                 6.3599                 2.3650
 Frc consts  --      0.1126                 0.1669                 0.0760
 IR Inten    --      4.5258                25.9904                40.8637

                     13                     14                     15
                      A                      A                      A
 Frequencies --    272.3244               276.3046               286.4673
 Red. masses --      1.1577                 3.2182                 1.1309
 Frc consts  --      0.0506                 0.1448                 0.0547
 IR Inten    --     16.7307                 5.4336                37.8546

                     16                     17                     18
                      A                      A                      A
 Frequencies --    290.0243               296.1477               302.6080
 Red. masses --      1.6304                 1.1052                 1.1239
 Frc consts  --      0.0808                 0.0571                 0.0606
 IR Inten    --    159.8312                75.7116               112.9437

                     19                     20                     21
                      A                      A                      A
 Frequencies --    320.6624               328.3098               342.7479
 Red. masses --      1.2368                 4.4045                 4.1742
 Frc consts  --      0.0749                 0.2797                 0.2889
 IR Inten    --    117.9195                 7.2548                17.4721

                     22                     23                     24
                      A                      A                      A
 Frequencies --    400.0773               406.5398               433.0993
 Red. masses --      5.3472                 1.5465                 2.5723
 Frc consts  --      0.5043                 0.1506                 0.2843
 IR Inten    --      2.7850                46.4446                13.7807

                     25                     26                     27
                      A                      A                      A
 Frequencies --    451.4703               490.8992               509.8999
 Red. masses --      4.8268                 5.1232                 3.7180
 Frc consts  --      0.5797                 0.7274                 0.5695
 IR Inten    --      9.0254                11.1474                20.1655

                     28                     29                     30
                      A                      A                      A
 Frequencies --    539.4864               577.8239               607.4822
 Red. masses --      5.5858                 5.5670                 3.8014
 Frc consts  --      0.9579                 1.0951                 0.8265
 IR Inten    --     10.8262                10.0895                 4.3082

                     31                     32                     33
                      A                      A                      A
 Frequencies --    657.1385               714.3409               799.4768
 Red. masses --      1.0925                 1.0900                 2.7836
 Frc consts  --      0.2780                 0.3277                 1.0483
 IR Inten    --    399.4791               241.6682                19.1810

                     34                     35                     36
                      A                      A                      A
 Frequencies --    822.9453               841.7380               851.4768
 Red. masses --      1.2368                 1.1113                 2.5000
 Frc consts  --      0.4935                 0.4639                 1.0679
 IR Inten    --    107.8226               120.2079                18.5673

                     37                     38                     39
                      A                      A                      A
 Frequencies --    924.9015               983.3295              1005.1660
 Red. masses --      4.2810                 2.7686                 2.7269
 Frc consts  --      2.1577                 1.5773                 1.6233
 IR Inten    --    123.0487                60.6258                98.6157

                     40                     41                     42
                      A                      A                      A
 Frequencies --   1034.2935              1064.1032              1073.9618
 Red. masses --      3.9194                 3.7591                 5.2804
 Frc consts  --      2.4703                 2.5078                 3.5883
 IR Inten    --     35.6904               147.4524               109.1554

                     43                     44                     45
                      A                      A                      A
 Frequencies --   1085.9080              1097.7365              1106.8374
 Red. masses --      2.4916                 3.3238                 2.7292
 Frc consts  --      1.7311                 2.3598                 1.9700
 IR Inten    --     16.6972                62.4559                25.8555

                     46                     47                     48
                      A                      A                      A
 Frequencies --   1125.5597              1128.7881              1165.5014
 Red. masses --      2.6771                 3.8052                 4.3317
 Frc consts  --      1.9983                 2.8566                 3.4669
 IR Inten    --    142.1029                17.5196                57.6502

                     49                     50                     51
                      A                      A                      A
 Frequencies --   1191.4006              1229.9979              1251.3727
 Red. masses --      1.2913                 1.1616                 1.1287
 Frc consts  --      1.0799                 1.0354                 1.0413
 IR Inten    --     29.3041                47.8531                59.4127

                     52                     53                     54
                      A                      A                      A
 Frequencies --   1289.6499              1327.2736              1349.6621
 Red. masses --      1.1476                 1.4002                 1.1954
 Frc consts  --      1.1245                 1.4533                 1.2830
 IR Inten    --      9.4636                37.3820                 3.5645

                     55                     56                     57
                      A                      A                      A
 Frequencies --   1358.3566              1362.7082              1387.6536
 Red. masses --      1.2174                 1.2207                 1.2112
 Frc consts  --      1.3234                 1.3355                 1.3741
 IR Inten    --     10.2416                13.0793                93.7692

                     58                     59                     60
                      A                      A                      A
 Frequencies --   1388.7501              1399.1463              1412.6060
 Red. masses --      1.2150                 1.3968                 1.2682
 Frc consts  --      1.3806                 1.6110                 1.4910
 IR Inten    --      7.9477                23.4680                 7.2583

                     61                     62                     63
                      A                      A                      A
 Frequencies --   1424.8372              1435.0354              1460.4058
 Red. masses --      1.4521                 1.3428                 1.4943
 Frc consts  --      1.7369                 1.6292                 1.8777
 IR Inten    --     28.7537                 6.2227                 6.2185

                     64                     65                     66
                      A                      A                      A
 Frequencies --   1493.3155              1529.4980              1539.2257
 Red. masses --      1.2485                 1.0882                 1.5309
 Frc consts  --      1.6404                 1.4999                 2.1370
 IR Inten    --     35.8688                 2.6208                30.8257

                     67                     68                     69
                      A                      A                      A
 Frequencies --   1715.5221              1721.2564              2989.1295
 Red. masses --      1.0790                 1.0763                 1.0843
 Frc consts  --      1.8709                 1.8787                 5.7080
 IR Inten    --     59.0398                54.1105                60.4496

                     70                     71                     72
                      A                      A                      A
 Frequencies --   3009.5786              3014.9632              3043.9728
 Red. masses --      1.0844                 1.0823                 1.0772
 Frc consts  --      5.7869                 5.7965                 5.8806
 IR Inten    --     45.5473                21.9656                28.9769

                     73                     74                     75
                      A                      A                      A
 Frequencies --   3045.3898              3079.9544              3144.7049
 Red. masses --      1.0782                 1.0859                 1.0967
 Frc consts  --      5.8918                 6.0692                 6.3902
 IR Inten    --     70.1488                19.1721                18.4625

                     76                     77                     78
                      A                      A                      A
 Frequencies --   3490.2138              3537.6611              3574.1031
 Red. masses --      1.0657                 1.0652                 1.0576
 Frc consts  --      7.6488                 7.8545                 7.9602
 IR Inten    --    284.5716               210.8778               574.2421

                     79                     80                     81
                      A                      A                      A
 Frequencies --   3626.4695              3739.1702              3741.8240
 Red. masses --      1.0541                 1.0662                 1.0660
 Frc consts  --      8.1680                 8.7827                 8.7940
 IR Inten    --    335.5340                25.8554                 6.2142

                     82                     83                     84
                      A                      A                      A
 Frequencies --   3742.3848              3799.7672              3802.6137
 Red. masses --      1.0664                 1.0711                 1.0739
 Frc consts  --      8.7996                 9.1117                 9.1491
 IR Inten    --     19.7880                72.8545                77.5565

 - Thermochemistry -
 -------------------
 Temperature   298.150 Kelvin.  Pressure   1.00000 Atm.
 Atom     1 has atomic number  6 and mass  12.00000

 Molecular mass:   216.08452 amu.
 Principal axes and moments of inertia in atomic units:
                           1         2         3
     Eigenvalues --  2796.642673586.290884789.68004
           X            0.99995  -0.00173  -0.00983
           Y            0.00173   1.00000  -0.00018
           Z            0.00983   0.00017   0.99995
 This molecule is an asymmetric top.
 Rotational symmetry number  1.
 Warning -- assumption of classical behavior for rotation
           may cause significant error
 Rotational temperatures (Kelvin)      0.03097     0.02415     0.01808
 Rotational constants (GHZ):           0.64532     0.50323     0.37680
    1 imaginary frequencies ignored.
 Zero-point vibrational energy     650213.7 (Joules/Mol)
                                  155.40480 (Kcal/Mol)
 Warning -- explicit consideration of  29 degrees of freedom as
           vibrations may cause significant error
 Vibrational temperatures:     55.79    59.87    89.27   119.99   141.94
          (Kelvin)            190.01   236.16   263.44   278.63   303.69
                              336.05   391.81   397.54   412.16   417.28
                              426.09   435.38   461.36   472.36   493.14
                              575.62   584.92   623.13   649.56   706.29
                              733.63   776.20   831.36   874.03   945.47
                             1027.78  1150.27  1184.03  1211.07  1225.08
                             1330.73  1414.79  1446.21  1488.12  1531.01
                             1545.19  1562.38  1579.40  1592.49  1619.43
                             1624.07  1676.89  1714.16  1769.69  1800.44
                             1855.52  1909.65  1941.86  1954.37  1960.63
                             1996.52  1998.10  2013.06  2032.42  2050.02
                             2064.69  2101.20  2148.55  2200.60  2214.60
                             2468.25  2476.50  4300.69  4330.11  4337.85
                             4379.59  4381.63  4431.36  4524.52  5021.63
                             5089.90  5142.33  5217.67  5379.83  5383.64
                             5384.45  5467.01  5471.11

 Zero-point correction=                           0.247653 (Hartree/Particle)
 Thermal correction to Energy=                    0.264947
 Thermal correction to Enthalpy=                  0.265891
 Thermal correction to Gibbs Free Energy=         0.203185
 Sum of electronic and zero-point Energies=           -839.732756
 Sum of electronic and thermal Energies=              -839.715462
 Sum of electronic and thermal Enthalpies=            -839.714518
 Sum of electronic and thermal Free Energies=         -839.777224

                     E (Thermal)             CV                S
                      KCal/Mol        Cal/Mol-Kelvin    Cal/Mol-Kelvin
 Total                  166.257             63.530            131.975
 Electronic               0.000              0.000              0.000
 Translational            0.889              2.981             42.015
 Rotational               0.889              2.981             32.241
 Vibrational            164.479             57.569             57.719
 Vibration     1          0.594              1.981              5.321
 Vibration     2          0.594              1.981              5.181
 Vibration     3          0.597              1.972              4.391
 Vibration     4          0.600              1.961              3.809
 Vibration     5          0.604              1.950              3.481
 Vibration     6          0.612              1.921              2.916
 Vibration     7          0.623              1.886              2.502
 Vibration     8          0.631              1.863              2.297
 Vibration     9          0.635              1.849              2.193
 Vibration    10          0.643              1.824              2.034
 Vibration    11          0.654              1.790              1.851
 Vibration    12          0.675              1.724              1.581
 Vibration    13          0.678              1.717              1.556
 Vibration    14          0.684              1.699              1.495
 Vibration    15          0.686              1.692              1.474
 Vibration    16          0.690              1.681              1.439
 Vibration    17          0.694              1.669              1.402
 Vibration    18          0.706              1.634              1.307
 Vibration    19          0.712              1.619              1.268
 Vibration    20          0.722              1.590              1.199
 Vibration    21          0.766              1.470              0.962
 Vibration    22          0.771              1.456              0.939
 Vibration    23          0.794              1.398              0.849
 Vibration    24          0.810              1.358              0.791
 Vibration    25          0.847              1.270              0.681
 Vibration    26          0.865              1.228              0.634
 Vibration    27          0.895              1.163              0.566
 Vibration    28          0.934              1.079              0.489
 Vibration    29          0.966              1.016              0.437

 Optimization completed.
    -- Stationary point found.
 Normal termination of Gaussian 09 at Tue Jan 31 07:10:32 2017.
