 Gaussian 09, Revision E.01,
 Gaussian 09:  ES64L-G09RevE.01 30-Nov-2015

 ----------------------------------------------------------------------
 # opt=(calcfc,ts,noeigentest,maxcycle=1000,cartesian) b3lyp 6-31g(d) f
 req
 ----------------------------------------------------------------------

 -------------------------------------------
 ./3/glo_1w_alpha_boat3_b3lyp_631Gd_iopt.out
 -------------------------------------------
 Symbolic Z-matrix:
 Charge =  0 Multiplicity = 1

 SCF Done:  E(RB3LYP) =  -839.990765834     A.U. after   14 cycles
 Optimization completed.
    -- Stationary point found.
 Normal termination of Gaussian 09 at Mon Jan 30 06:42:36 2017.

 --------------------------------------------------------------------
 #N Geom=AllCheck Guess=TCheck SCRF=Check GenChk RB3LYP/6-31G(d) Freq
 --------------------------------------------------------------------

 Structure from the checkpoint file:  "/scratch/10499763.yak.local/Gau-2951.chk"
 -------------------------------------------
 ./3/glo_1w_alpha_boat3_b3lyp_631Gd_iopt.out
 -------------------------------------------
 Charge =  0 Multiplicity = 1

                         Standard orientation:
 ---------------------------------------------------------------------
 Center     Atomic      Atomic             Coordinates (Angstroms)
 Number     Number       Type             X           Y           Z
 ---------------------------------------------------------------------
      1          6           0        0.926941    0.492090   -0.512369
      2          6           0       -1.117979    1.346611    0.648631
      3          8           0       -0.645299   -1.018829    0.615501
      4          6           0       -1.725709   -0.054209    0.563401
      5          6           0        0.282751   -0.909120   -0.480559
      6          6           0       -0.152399    1.570930   -0.523369
      7          1           0       -0.732959    1.522931   -1.452579
      8          1           0       -0.534379    1.376640    1.585881
      9          1           0       -0.273759   -1.044970   -1.418319
     10          1           0        1.557521    0.618180    0.374591
     11          6           0        1.321781   -2.051160   -0.317139
     12          1           0        1.209581   -2.775850   -1.135069
     13          1           0        1.114281   -2.568660    0.622691
     14          8           0        2.678611   -1.617000   -0.241089
     15          1           0        2.806421   -0.984370   -0.975119
     16          8           0       -2.137259    2.320551    0.661241
     17          1           0       -1.696939    3.154591    0.420341
     18          8           0        0.370801    2.898310   -0.483749
     19          1           0        1.043571    2.930100    0.217701
     20          8           0        1.831231    0.586730   -1.624219
     21          1           0        1.307971    0.688290   -2.436469
     22          1           0       -2.309759   -0.277219    1.465101
     23          8           0       -2.479709   -0.179239   -0.594609
     24          1           0       -2.882119   -1.076039   -0.562139
     25          8           0       -2.712959   -2.872749    0.029151
     26          1           0       -3.233539   -3.158459    0.795171
     27          1           0       -1.853449   -2.585719    0.398381
     28          8           0        3.120461    0.121410    1.974371
     29          1           0        3.062881   -0.608760    1.323091
     30          1           0        3.995341    0.504990    1.812361
 ---------------------------------------------------------------------

 SCF Done:  E(RB3LYP) =  -839.990765834     A.U. after    1 cycles

 The electronic state is 1-A.
 Alpha  occ. eigenvalues --  -19.17859 -19.17518 -19.16564 -19.16282 -19.16207
 Alpha  occ. eigenvalues --  -19.14807 -19.14235 -19.12283 -10.29070 -10.25316
 Alpha  occ. eigenvalues --  -10.24864 -10.24642 -10.24596 -10.24011  -1.07836
 Alpha  occ. eigenvalues --   -1.05366  -1.04058  -1.02757  -1.01953  -1.01419
 Alpha  occ. eigenvalues --   -1.00363  -0.98084  -0.78965  -0.77308  -0.69717
 Alpha  occ. eigenvalues --   -0.65708  -0.62702  -0.59583  -0.55549  -0.55099
 Alpha  occ. eigenvalues --   -0.53773  -0.52187  -0.51181  -0.50356  -0.49864
 Alpha  occ. eigenvalues --   -0.47734  -0.46404  -0.46238  -0.43766  -0.42871
 Alpha  occ. eigenvalues --   -0.42436  -0.40794  -0.40305  -0.39222  -0.38301
 Alpha  occ. eigenvalues --   -0.36550  -0.36013  -0.34993  -0.34366  -0.33143
 Alpha  occ. eigenvalues --   -0.31621  -0.30634  -0.30051  -0.29335  -0.28046
 Alpha  occ. eigenvalues --   -0.27698  -0.27431  -0.26137
 Alpha virt. eigenvalues --    0.03833   0.05173   0.06030   0.08060   0.09608
 Alpha virt. eigenvalues --    0.10388   0.11250   0.11764   0.13223   0.13388
 Alpha virt. eigenvalues --    0.14755   0.16544   0.17231   0.17862   0.18530

 Mulliken charges:
               1
     1  C    0.045983
     2  C    0.138323
     3  O   -0.537259
     4  C    0.298461
     5  C    0.110261
     6  C    0.058896
     7  H    0.158611
     8  H    0.126845
     9  H    0.137046
    10  H    0.182008
    11  C   -0.059991
    12  H    0.142855
    13  H    0.173698
    14  O   -0.641167
    15  H    0.424801
    16  O   -0.635436
    17  H    0.404574
    18  O   -0.631032
    19  H    0.400338
    20  O   -0.643651
    21  H    0.402559
    22  H    0.136017
    23  O   -0.628576
    24  H    0.430246
    25  O   -0.800618
    26  H    0.400370
    27  H    0.419597
    28  O   -0.813020
    29  H    0.419913
    30  H    0.379346
 Sum of Mulliken charges =  -0.00000

 Dipole moment (field-independent basis, Debye):
    X=              0.9382    Y=             -1.1327    Z=             -0.6215  Tot=              1.5968
 Quadrupole moment (field-independent basis, Debye-Ang):
   XX=            -84.7068   YY=            -81.6743   ZZ=            -82.8371
   XY=              9.9762   XZ=             -8.2779   YZ=             -1.1408

  Exact polarizability: 101.304   2.861  98.810  -1.840   0.658  82.916
 Approx polarizability: 133.623   4.325 126.218   1.376  -2.123 125.384

 ******    1 imaginary frequencies (negative Signs) ******

                      1                      2                      3
                      A                      A                      A
 Frequencies --    -50.8845                38.3477                54.6707
 Red. masses --      2.8394                 5.5963                 5.6834
 Frc consts  --      0.0043                 0.0048                 0.0100
 IR Inten    --      6.3350                 5.1937                 2.6460

                      4                      5                      6
                      A                      A                      A
 Frequencies --     62.4116                90.6923               110.3711
 Red. masses --      5.3087                 6.6017                 5.6220
 Frc consts  --      0.0122                 0.0320                 0.0404
 IR Inten    --      2.6561                 6.3618                 4.4142

                      7                      8                      9
                      A                      A                      A
 Frequencies --    142.4438               159.5717               184.1121
 Red. masses --      5.7824                 5.1941                 3.0295
 Frc consts  --      0.0691                 0.0779                 0.0605
 IR Inten    --     11.7532                11.4794                27.9283

                     10                     11                     12
                      A                      A                      A
 Frequencies --    192.5944               207.2777               222.9832
 Red. masses --      1.7388                 2.8843                 4.5434
 Frc consts  --      0.0380                 0.0730                 0.1331
 IR Inten    --     82.8107                16.6650                 8.5461

                     13                     14                     15
                      A                      A                      A
 Frequencies --    248.1663               270.3850               278.8538
 Red. masses --      3.1480                 2.3634                 3.9499
 Frc consts  --      0.1142                 0.1018                 0.1810
 IR Inten    --      7.8263                 9.4807                52.2748

                     16                     17                     18
                      A                      A                      A
 Frequencies --    283.5113               311.3307               326.8402
 Red. masses --      1.1553                 1.7178                 3.0073
 Frc consts  --      0.0547                 0.0981                 0.1893
 IR Inten    --     54.8671                39.5801                42.5564

                     19                     20                     21
                      A                      A                      A
 Frequencies --    338.2059               349.2076               357.9752
 Red. masses --      1.6384                 1.5974                 1.8369
 Frc consts  --      0.1104                 0.1148                 0.1387
 IR Inten    --     83.5195                 0.6891                54.6720

                     22                     23                     24
                      A                      A                      A
 Frequencies --    397.1022               408.5683               427.4007
 Red. masses --      1.1026                 7.0599                 4.4022
 Frc consts  --      0.1024                 0.6943                 0.4738
 IR Inten    --     56.1157                 2.8436                 5.8712

                     25                     26                     27
                      A                      A                      A
 Frequencies --    483.1647               487.1380               534.4160
 Red. masses --      1.2811                 3.2385                 3.9365
 Frc consts  --      0.1762                 0.4528                 0.6624
 IR Inten    --    140.5335                21.6811                12.1810

                     28                     29                     30
                      A                      A                      A
 Frequencies --    553.8041               593.9726               619.1730
 Red. masses --      5.3056                 4.1890                 1.0460
 Frc consts  --      0.9587                 0.8708                 0.2363
 IR Inten    --      6.9720                21.9223               165.8787

                     31                     32                     33
                      A                      A                      A
 Frequencies --    661.3313               670.7070               757.7418
 Red. masses --      1.9484                 1.2903                 2.1165
 Frc consts  --      0.5021                 0.3420                 0.7160
 IR Inten    --     16.5609               293.3670                82.0704

                     34                     35                     36
                      A                      A                      A
 Frequencies --    765.1976               824.1234               868.3475
 Red. masses --      1.5404                 1.2038                 2.3582
 Frc consts  --      0.5314                 0.4817                 1.0476
 IR Inten    --    276.5815               111.5795                14.0767

                     37                     38                     39
                      A                      A                      A
 Frequencies --    940.0989               956.4899              1000.0964
 Red. masses --      3.1316                 4.5523                 4.3188
 Frc consts  --      1.6306                 2.4538                 2.5451
 IR Inten    --     16.2745                31.5260                65.5024

                     40                     41                     42
                      A                      A                      A
 Frequencies --   1018.3215              1045.7972              1075.6951
 Red. masses --      4.9238                 3.7909                 2.8312
 Frc consts  --      3.0083                 2.4428                 1.9302
 IR Inten    --    329.9330                25.9222                50.5740

                     43                     44                     45
                      A                      A                      A
 Frequencies --   1088.1967              1119.0089              1130.1628
 Red. masses --      3.5300                 3.4278                 3.3649
 Frc consts  --      2.4629                 2.5289                 2.5322
 IR Inten    --     64.9043                28.5162                 7.3716

                     46                     47                     48
                      A                      A                      A
 Frequencies --   1141.4454              1164.6681              1171.6045
 Red. masses --      3.4905                 3.3198                 2.6531
 Frc consts  --      2.6795                 2.6532                 2.1457
 IR Inten    --     35.4207                50.2853                83.4099

                     49                     50                     51
                      A                      A                      A
 Frequencies --   1230.2941              1241.3937              1259.0887
 Red. masses --      1.3536                 1.2642                 1.1198
 Frc consts  --      1.2072                 1.1479                 1.0460
 IR Inten    --     34.2534                32.9382                31.1902

                     52                     53                     54
                      A                      A                      A
 Frequencies --   1282.6577              1312.9862              1335.2456
 Red. masses --      1.2798                 1.1890                 1.2708
 Frc consts  --      1.2405                 1.2077                 1.3350
 IR Inten    --     15.9841                54.4271                30.7686

                     55                     56                     57
                      A                      A                      A
 Frequencies --   1370.6850              1379.9218              1390.0630
 Red. masses --      1.2006                 1.3380                 1.2095
 Frc consts  --      1.3290                 1.5011                 1.3770
 IR Inten    --     11.8912                32.1385                24.0673

                     58                     59                     60
                      A                      A                      A
 Frequencies --   1404.7558              1421.2222              1435.4308
 Red. masses --      1.2287                 1.2934                 1.3246
 Frc consts  --      1.4285                 1.5392                 1.6081
 IR Inten    --     10.1442                10.3603                14.2631

                     61                     62                     63
                      A                      A                      A
 Frequencies --   1450.8889              1452.8466              1468.6033
 Red. masses --      1.2580                 1.4066                 1.2734
 Frc consts  --      1.5602                 1.7493                 1.6182
 IR Inten    --     45.5627                49.5265                24.1503

                     64                     65                     66
                      A                      A                      A
 Frequencies --   1476.2038              1519.0726              1531.4691
 Red. masses --      1.2359                 1.5596                 1.0742
 Frc consts  --      1.5868                 2.1205                 1.4845
 IR Inten    --     38.4310                48.1918                 0.9006

                     67                     68                     69
                      A                      A                      A
 Frequencies --   1716.7472              1752.8693              2973.2563
 Red. masses --      1.0773                 1.0750                 1.0827
 Frc consts  --      1.8707                 1.9461                 5.6391
 IR Inten    --     51.0293                60.8147                40.6876

                     70                     71                     72
                      A                      A                      A
 Frequencies --   3024.0522              3043.3665              3060.4040
 Red. masses --      1.0793                 1.0748                 1.0871
 Frc consts  --      5.8153                 5.8650                 5.9990
 IR Inten    --     15.5622                71.3397                54.6917

                     73                     74                     75
                      A                      A                      A
 Frequencies --   3071.3480              3091.0002              3128.1313
 Red. masses --      1.0855                 1.0876                 1.0967
 Frc consts  --      6.0333                 6.1223                 6.3229
 IR Inten    --     25.0807                 8.4455                15.9960

                     76                     77                     78
                      A                      A                      A
 Frequencies --   3517.8291              3574.8849              3613.0893
 Red. masses --      1.0652                 1.0566                 1.0548
 Frc consts  --      7.7663                 7.9557                 8.1128
 IR Inten    --    232.4751               263.7762               324.8804

                     79                     80                     81
                      A                      A                      A
 Frequencies --   3629.5040              3697.5347              3712.3427
 Red. masses --      1.0650                 1.0653                 1.0659
 Frc consts  --      8.2662                 8.5812                 8.6545
 IR Inten    --    124.0107                40.6643                16.6889

                     82                     83                     84
                      A                      A                      A
 Frequencies --   3725.8891              3796.1343              3804.9251
 Red. masses --      1.0661                 1.0715                 1.0736
 Frc consts  --      8.7196                 9.0975                 9.1579
 IR Inten    --     17.0788                54.1221                86.1108

 - Thermochemistry -
 -------------------
 Temperature   298.150 Kelvin.  Pressure   1.00000 Atm.
 Atom     1 has atomic number  6 and mass  12.00000

 Molecular mass:   216.08452 amu.
 Principal axes and moments of inertia in atomic units:
                           1         2         3
     Eigenvalues --  2720.029953392.382684889.35448
           X            0.99914   0.04156   0.00058
           Y           -0.04156   0.99913   0.00280
           Z           -0.00046  -0.00282   1.00000
 This molecule is an asymmetric top.
 Rotational symmetry number  1.
 Warning -- assumption of classical behavior for rotation
           may cause significant error
 Rotational temperatures (Kelvin)      0.03184     0.02553     0.01771
 Rotational constants (GHZ):           0.66350     0.53200     0.36912
    1 imaginary frequencies ignored.
 Zero-point vibrational energy     652143.4 (Joules/Mol)
                                  155.86601 (Kcal/Mol)
 Warning -- explicit consideration of  29 degrees of freedom as
           vibrations may cause significant error
 Vibrational temperatures:     55.17    78.66    89.80   130.49   158.80
          (Kelvin)            204.94   229.59   264.90   277.10   298.23
                              320.82   357.06   389.02   401.21   407.91
                              447.93   470.25   486.60   502.43   515.05
                              571.34   587.84   614.93   695.17   700.88
                              768.90   796.80   854.59   890.85   951.51
                              965.00  1090.22  1100.95  1185.73  1249.36
                             1352.59  1376.17  1438.91  1465.14  1504.67
                             1547.68  1565.67  1610.00  1626.05  1642.28
                             1675.70  1685.68  1770.12  1786.09  1811.55
                             1845.46  1889.09  1921.12  1972.11  1985.40
                             1999.99  2021.13  2044.82  2065.26  2087.50
                             2090.32  2112.99  2123.93  2185.60  2203.44
                             2470.01  2521.98  4277.85  4350.93  4378.72
                             4403.23  4418.98  4447.25  4500.68  5061.37
                             5143.46  5198.42  5222.04  5319.92  5341.23
                             5360.72  5461.78  5474.43

 Zero-point correction=                           0.248388 (Hartree/Particle)
 Thermal correction to Energy=                    0.265558
 Thermal correction to Enthalpy=                  0.266502
 Thermal correction to Gibbs Free Energy=         0.204371
 Sum of electronic and zero-point Energies=           -839.742378
 Sum of electronic and thermal Energies=              -839.725208
 Sum of electronic and thermal Enthalpies=            -839.724264
 Sum of electronic and thermal Free Energies=         -839.786394

                     E (Thermal)             CV                S
                      KCal/Mol        Cal/Mol-Kelvin    Cal/Mol-Kelvin
 Total                  166.640             63.379            130.765
 Electronic               0.000              0.000              0.000
 Translational            0.889              2.981             42.015
 Rotational               0.889              2.981             32.178
 Vibrational            164.863             57.417             56.572
 Vibration     1          0.594              1.982              5.343
 Vibration     2          0.596              1.976              4.641
 Vibration     3          0.597              1.972              4.379
 Vibration     4          0.602              1.956              3.645
 Vibration     5          0.606              1.941              3.262
 Vibration     6          0.616              1.911              2.771
 Vibration     7          0.621              1.892              2.555
 Vibration     8          0.631              1.861              2.286
 Vibration     9          0.635              1.850              2.203
 Vibration    10          0.641              1.829              2.068
 Vibration    11          0.649              1.806              1.935
 Vibration    12          0.662              1.766              1.744
 Vibration    13          0.674              1.728              1.594
 Vibration    14          0.679              1.713              1.541
 Vibration    15          0.682              1.704              1.512
 Vibration    16          0.700              1.652              1.355
 Vibration    17          0.711              1.622              1.276
 Vibration    18          0.719              1.599              1.221
 Vibration    19          0.726              1.577              1.170
 Vibration    20          0.733              1.559              1.131
 Vibration    21          0.764              1.476              0.973
 Vibration    22          0.773              1.452              0.932
 Vibration    23          0.789              1.411              0.867
 Vibration    24          0.839              1.287              0.702
 Vibration    25          0.843              1.279              0.691
 Vibration    26          0.889              1.174              0.577
 Vibration    27          0.909              1.131              0.536
 Vibration    28          0.952              1.045              0.460
 Vibration    29          0.979              0.991              0.418

 Optimization completed.
    -- Stationary point found.
 Normal termination of Gaussian 09 at Mon Jan 30 07:00:55 2017.
