 Gaussian 09, Revision D.01,
 Gaussian 09:  ES64L-G09RevD.01 24-Apr-2013

 ------------------------------------------------------
 # opt=(modredundant,MaxCycle=1000) freq B3LYP/6-31G(d)
 ------------------------------------------------------

 -------------------------
 boat3_Alpha_B3LYP_6-31G_d
 -------------------------
 Symbolic Z-matrix:
 Charge =  0 Multiplicity = 1

 SCF Done:  E(RB3LYP) =  -839.939968191     A.U. after   14 cycles
 SCF Done:  E(RB3LYP) =  -839.960633874     A.U. after   12 cycles
 SCF Done:  E(RB3LYP) =  -839.969340550     A.U. after   14 cycles
 SCF Done:  E(RB3LYP) =  -839.974961152     A.U. after   13 cycles
 SCF Done:  E(RB3LYP) =  -839.976232310     A.U. after   13 cycles
 SCF Done:  E(RB3LYP) =  -839.978995745     A.U. after   13 cycles
 SCF Done:  E(RB3LYP) =  -839.980207474     A.U. after   12 cycles
 SCF Done:  E(RB3LYP) =  -839.981341311     A.U. after   11 cycles
 SCF Done:  E(RB3LYP) =  -839.982271004     A.U. after   12 cycles
 SCF Done:  E(RB3LYP) =  -839.982848229     A.U. after   10 cycles
 SCF Done:  E(RB3LYP) =  -839.983908825     A.U. after    7 cycles
 SCF Done:  E(RB3LYP) =  -839.983909674     A.U. after    7 cycles
 SCF Done:  E(RB3LYP) =  -839.983910624     A.U. after    7 cycles
 SCF Done:  E(RB3LYP) =  -839.983911456     A.U. after    7 cycles
 SCF Done:  E(RB3LYP) =  -839.983911939     A.U. after    7 cycles
 SCF Done:  E(RB3LYP) =  -839.983912231     A.U. after    7 cycles
 SCF Done:  E(RB3LYP) =  -839.983912432     A.U. after    7 cycles
 SCF Done:  E(RB3LYP) =  -839.983912532     A.U. after    7 cycles
 SCF Done:  E(RB3LYP) =  -839.983912544     A.U. after    6 cycles
 Optimization completed.
    -- Stationary point found.
 Normal termination of Gaussian 09 at Wed Jan 25 22:03:58 2017.

 --------------------------------------------------------------------
 #N Geom=AllCheck Guess=TCheck SCRF=Check GenChk RB3LYP/6-31G(d) Freq
 --------------------------------------------------------------------

 Structure from the checkpoint file:  "/home/iawad/Gau-26727.chk"
 -------------------------
 boat3_Alpha_B3LYP_6-31G_d
 -------------------------
 Charge =  0 Multiplicity = 1

                         Standard orientation:
 ---------------------------------------------------------------------
 Center     Atomic      Atomic             Coordinates (Angstroms)
 Number     Number       Type             X           Y           Z
 ---------------------------------------------------------------------
      1          6           0       -0.645394   -0.271108    1.161567
      2          6           0        0.201533    1.278879   -0.698605
      3          8           0        1.248726   -0.916931   -0.235275
      4          6           0        1.483716    0.442647   -0.726883
      5          6           0       -0.065050   -1.312441    0.177382
      6          6           0       -0.498543    1.193937    0.661156
      7          1           0        0.125961    1.723153    1.386362
      8          1           0       -0.480640    0.868862   -1.460692
      9          1           0        0.107045   -2.212633    0.782931
     10          1           0       -1.701474   -0.485045    1.343221
     11          6           0       -0.935349   -1.749282   -1.014750
     12          1           0       -0.391007   -2.519504   -1.578096
     13          1           0       -1.162657   -0.934825   -1.702603
     14          8           0       -2.214334   -2.238937   -0.592369
     15          1           0       -2.082729   -2.954660    0.049874
     16          8           0        0.506175    2.616332   -1.027069
     17          1           0       -0.288013    3.115299   -0.763381
     18          8           0       -1.716932    1.920297    0.603611
     19          1           0       -2.374482    1.378316    0.110280
     20          8           0       -0.000153   -0.444560    2.421959
     21          1           0        0.933819   -0.208370    2.284978
     22          1           0        1.867992    0.327583   -1.749478
     23          8           0        2.416988    1.033702    0.111625
     24          1           0        3.228736    0.480818    0.064971
     25          8           0        4.026985   -1.222458   -0.077120
     26          1           0        4.369448   -1.463245   -0.951225
     27          1           0        3.103822   -1.543746   -0.071863
     28          8           0       -3.618274    0.183210   -0.539123
     29          1           0       -3.321245   -0.750536   -0.499649
     30          1           0       -4.373495    0.237489    0.065272
 ---------------------------------------------------------------------

 SCF Done:  E(RB3LYP) =  -839.983912544     A.U. after    1 cycles

 The electronic state is 1-A.
 Alpha  occ. eigenvalues --  -19.19438 -19.17451 -19.16156 -19.16010 -19.14468
 Alpha  occ. eigenvalues --  -19.14103 -19.13528 -19.13098 -10.29146 -10.25958
 Alpha  occ. eigenvalues --  -10.25778 -10.24183 -10.23425 -10.22903  -1.07373
 Alpha  occ. eigenvalues --   -1.05976  -1.02605  -1.02217  -1.01758  -1.01590
 Alpha  occ. eigenvalues --   -0.99998  -0.99352  -0.78218  -0.76242  -0.70721
 Alpha  occ. eigenvalues --   -0.64816  -0.64049  -0.57672  -0.55698  -0.54434
 Alpha  occ. eigenvalues --   -0.54030  -0.53575  -0.52137  -0.50454  -0.48654
 Alpha  occ. eigenvalues --   -0.48105  -0.47058  -0.46123  -0.44653  -0.42410
 Alpha  occ. eigenvalues --   -0.41834  -0.40557  -0.40205  -0.39132  -0.38256
 Alpha  occ. eigenvalues --   -0.37435  -0.35344  -0.34945  -0.33559  -0.32146
 Alpha  occ. eigenvalues --   -0.31850  -0.30909  -0.30401  -0.29789  -0.28569
 Alpha  occ. eigenvalues --   -0.27381  -0.26219  -0.24261
 Alpha virt. eigenvalues --    0.02692   0.05113   0.06336   0.08110   0.09098
 Alpha virt. eigenvalues --    0.09400   0.10415   0.11777   0.13668   0.14934
 Alpha virt. eigenvalues --    0.15317   0.16089   0.16783   0.17317   0.18472

 Mulliken charges:
               1
     1  C    0.102841
     2  C    0.106698
     3  O   -0.560769
     4  C    0.327220
     5  C    0.087417
     6  C    0.088146
     7  H    0.170747
     8  H    0.109189
     9  H    0.140546
    10  H    0.130187
    11  C   -0.075264
    12  H    0.151149
    13  H    0.179695
    14  O   -0.626088
    15  H    0.409135
    16  O   -0.636034
    17  H    0.405728
    18  O   -0.684950
    19  H    0.432356
    20  O   -0.633001
    21  H    0.398899
    22  H    0.127004
    23  O   -0.627208
    24  H    0.427320
    25  O   -0.795011
    26  H    0.397438
    27  H    0.420159
    28  O   -0.815902
    29  H    0.439943
    30  H    0.402412
 Sum of Mulliken charges =   0.00000

 Dipole moment (field-independent basis, Debye):
    X=             -1.7513    Y=             -5.4138    Z=             -1.9981  Tot=              6.0307
 Quadrupole moment (field-independent basis, Debye-Ang):
   XX=            -76.8599   YY=            -81.8594   ZZ=            -88.6439
   XY=             -0.8643   XZ=             -9.2812   YZ=              2.2323

  Exact polarizability: 105.916   0.741  95.594  -2.992  -0.046  81.142
 Approx polarizability: 138.701   2.121 130.473  -2.148  -0.910 117.868

 ******    1 imaginary frequencies (negative Signs) ******

                      1                      2                      3
                      A                      A                      A
 Frequencies --    -52.3832                40.0817                50.5111
 Red. masses --      6.4677                 4.6927                 6.1024
 Frc consts  --      0.0105                 0.0044                 0.0092
 IR Inten    --      5.1472                 6.8870                 0.6271

                      4                      5                      6
                      A                      A                      A
 Frequencies --     79.5306                95.8685               126.6597
 Red. masses --      5.2273                 6.3550                 5.1735
 Frc consts  --      0.0195                 0.0344                 0.0489
 IR Inten    --      4.4192                 7.1461                 2.6045

                      7                      8                      9
                      A                      A                      A
 Frequencies --    130.3082               184.1764               189.4100
 Red. masses --      5.5852                 6.6950                 3.3527
 Frc consts  --      0.0559                 0.1338                 0.0709
 IR Inten    --      3.8709                 1.5043                 3.6567

                     10                     11                     12
                      A                      A                      A
 Frequencies --    207.5002               220.4999               236.6075
 Red. masses --      4.7933                 4.8368                 1.7346
 Frc consts  --      0.1216                 0.1386                 0.0572
 IR Inten    --      1.8002                 3.4000                25.9016

                     13                     14                     15
                      A                      A                      A
 Frequencies --    251.8355               264.5508               282.4069
 Red. masses --      1.7515                 4.7314                 1.1236
 Frc consts  --      0.0654                 0.1951                 0.0528
 IR Inten    --    146.1200                26.6520                47.5687

                     16                     17                     18
                      A                      A                      A
 Frequencies --    288.4007               299.5709               315.7108
 Red. masses --      1.4991                 1.8973                 1.7775
 Frc consts  --      0.0735                 0.1003                 0.1044
 IR Inten    --     40.8742                59.6787                51.7462

                     19                     20                     21
                      A                      A                      A
 Frequencies --    334.8490               339.5946               393.9303
 Red. masses --      5.2866                 2.8718                 3.3245
 Frc consts  --      0.3492                 0.1951                 0.3040
 IR Inten    --     17.0973                33.8503                17.9151

                     22                     23                     24
                      A                      A                      A
 Frequencies --    440.4675               447.1908               463.0352
 Red. masses --      1.4196                 1.2910                 1.2719
 Frc consts  --      0.1623                 0.1521                 0.1607
 IR Inten    --     80.0739                23.9624               129.3032

                     25                     26                     27
                      A                      A                      A
 Frequencies --    479.2374               498.1131               518.0363
 Red. masses --      1.9562                 4.8568                 4.6739
 Frc consts  --      0.2647                 0.7100                 0.7390
 IR Inten    --     38.7123                 4.0939                16.9059

                     28                     29                     30
                      A                      A                      A
 Frequencies --    550.5854               576.2070               646.6002
 Red. masses --      3.7287                 5.1879                 1.0828
 Frc consts  --      0.6660                 1.0148                 0.2667
 IR Inten    --     34.1147                 5.6543               349.2027

                     31                     32                     33
                      A                      A                      A
 Frequencies --    649.3092               698.3666               764.0066
 Red. masses --      1.1119                 4.2204                 1.0853
 Frc consts  --      0.2762                 1.2127                 0.3732
 IR Inten    --    160.3682                 1.4794               117.5139

                     34                     35                     36
                      A                      A                      A
 Frequencies --    780.2906               818.9875               841.3399
 Red. masses --      2.8691                 2.5413                 1.2362
 Frc consts  --      1.0292                 1.0043                 0.5156
 IR Inten    --     37.4823                58.8061               102.0456

                     37                     38                     39
                      A                      A                      A
 Frequencies --    909.8024               933.5499               995.4278
 Red. masses --      4.7312                 2.8954                 2.0479
 Frc consts  --      2.3074                 1.4867                 1.1956
 IR Inten    --    139.6867                13.7977                15.0816

                     40                     41                     42
                      A                      A                      A
 Frequencies --   1035.2642              1042.5968              1056.1147
 Red. masses --      3.2116                 3.9692                 5.0232
 Frc consts  --      2.0280                 2.5421                 3.3011
 IR Inten    --     96.3216               124.9242                95.7370

                     43                     44                     45
                      A                      A                      A
 Frequencies --   1084.0494              1108.4722              1124.6728
 Red. masses --      2.8432                 3.9310                 2.7336
 Frc consts  --      1.9686                 2.8458                 2.0372
 IR Inten    --     20.3533               107.8978               107.0934

                     46                     47                     48
                      A                      A                      A
 Frequencies --   1136.4869              1156.5552              1164.4413
 Red. masses --      3.0279                 4.2271                 3.4880
 Frc consts  --      2.3042                 3.3314                 2.7865
 IR Inten    --     44.8794                30.5105                59.8054

                     49                     50                     51
                      A                      A                      A
 Frequencies --   1194.2876              1249.6977              1268.4644
 Red. masses --      1.2470                 1.3175                 1.1867
 Frc consts  --      1.0480                 1.2123                 1.1250
 IR Inten    --     52.5514                18.5095                32.5179

                     52                     53                     54
                      A                      A                      A
 Frequencies --   1297.4661              1330.2635              1332.5186
 Red. masses --      1.3969                 1.2526                 1.2818
 Frc consts  --      1.3855                 1.3060                 1.3410
 IR Inten    --     14.7973                25.2032                16.3628

                     55                     56                     57
                      A                      A                      A
 Frequencies --   1350.5647              1364.1441              1377.0363
 Red. masses --      1.2207                 1.2729                 1.1704
 Frc consts  --      1.3119                 1.3956                 1.3076
 IR Inten    --     12.8785                15.8825                29.8710

                     58                     59                     60
                      A                      A                      A
 Frequencies --   1392.9529              1414.8044              1423.3393
 Red. masses --      1.3448                 1.2431                 1.3150
 Frc consts  --      1.5374                 1.4661                 1.5697
 IR Inten    --     21.8533                11.8599                 5.3005

                     61                     62                     63
                      A                      A                      A
 Frequencies --   1443.3453              1451.8267              1461.9860
 Red. masses --      1.2979                 1.2305                 1.4365
 Frc consts  --      1.5930                 1.5281                 1.8090
 IR Inten    --     12.1153                44.1896                41.9784

                     64                     65                     66
                      A                      A                      A
 Frequencies --   1514.4721              1530.7600              1543.5742
 Red. masses --      1.1544                 1.5363                 1.0858
 Frc consts  --      1.5601                 2.1210                 1.5243
 IR Inten    --     74.8376                32.3309                 6.6761

                     67                     68                     69
                      A                      A                      A
 Frequencies --   1711.3551              1735.3935              2993.3594
 Red. masses --      1.0784                 1.0739                 1.0804
 Frc consts  --      1.8609                 1.9056                 5.7039
 IR Inten    --     50.1854                56.3708                58.1592

                     70                     71                     72
                      A                      A                      A
 Frequencies --   3035.4292              3038.9906              3047.7544
 Red. masses --      1.0847                 1.0858                 1.0741
 Frc consts  --      5.8883                 5.9084                 5.8785
 IR Inten    --     34.3449                55.5664                64.1817

                     73                     74                     75
                      A                      A                      A
 Frequencies --   3103.4619              3117.0526              3162.7666
 Red. masses --      1.0863                 1.0858                 1.0933
 Frc consts  --      6.1644                 6.2154                 6.4437
 IR Inten    --     16.6320                24.4770                15.0740

                     76                     77                     78
                      A                      A                      A
 Frequencies --   3486.2162              3517.8288              3580.4297
 Red. masses --      1.0668                 1.0658                 1.0572
 Frc consts  --      7.6390                 7.7709                 7.9848
 IR Inten    --    398.2703               297.0830               336.1625

                     79                     80                     81
                      A                      A                      A
 Frequencies --   3634.1087              3686.7974              3704.6161
 Red. masses --      1.0531                 1.0652                 1.0660
 Frc consts  --      8.1947                 8.5306                 8.6201
 IR Inten    --    279.9959                39.8793                22.8465

                     82                     83                     84
                      A                      A                      A
 Frequencies --   3737.9699              3807.0102              3807.6144
 Red. masses --      1.0663                 1.0719                 1.0744
 Frc consts  --      8.7779                 9.1529                 9.1772
 IR Inten    --     25.1891               133.6100                35.3028

 - Thermochemistry -
 -------------------
 Temperature   298.150 Kelvin.  Pressure   1.00000 Atm.
 Atom     1 has atomic number  6 and mass  12.00000

 Molecular mass:   216.08452 amu.
 Principal axes and moments of inertia in atomic units:
                           1         2         3
     Eigenvalues --  2294.925223741.422874634.08077
           X            0.99996  -0.00793  -0.00425
           Y            0.00798   0.99990   0.01141
           Z            0.00416  -0.01145   0.99993
 This molecule is an asymmetric top.
 Rotational symmetry number  1.
 Warning -- assumption of classical behavior for rotation
           may cause significant error
 Rotational temperatures (Kelvin)      0.03774     0.02315     0.01869
 Rotational constants (GHZ):           0.78641     0.48237     0.38945
    1 imaginary frequencies ignored.
 Zero-point vibrational energy     652568.1 (Joules/Mol)
                                  155.96752 (Kcal/Mol)
 Warning -- explicit consideration of  28 degrees of freedom as
           vibrations may cause significant error
 Vibrational temperatures:     57.67    72.67   114.43   137.93   182.23
          (Kelvin)            187.48   264.99   272.52   298.55   317.25
                              340.43   362.33   380.63   406.32   414.94
                              431.02   454.24   481.77   488.60   566.78
                              633.73   643.41   666.20   689.51   716.67
                              745.34   792.17   829.03   930.31   934.21
                             1004.79  1099.23  1122.66  1178.34  1210.50
                             1309.00  1343.17  1432.20  1489.51  1500.06
                             1519.51  1559.70  1594.84  1618.15  1635.15
                             1664.02  1675.37  1718.31  1798.03  1825.04
                             1866.76  1913.95  1917.19  1943.16  1962.70
                             1981.25  2004.15  2035.59  2047.87  2076.65
                             2088.85  2103.47  2178.98  2202.42  2220.86
                             2462.26  2496.84  4306.77  4367.30  4372.42
                             4385.03  4465.18  4484.74  4550.51  5015.88
                             5061.36  5151.43  5228.67  5304.47  5330.11
                             5378.10  5477.43  5478.30

 Zero-point correction=                           0.248550 (Hartree/Particle)
 Thermal correction to Energy=                    0.265466
 Thermal correction to Enthalpy=                  0.266410
 Thermal correction to Gibbs Free Energy=         0.205115
 Sum of electronic and zero-point Energies=           -839.735362
 Sum of electronic and thermal Energies=              -839.718447
 Sum of electronic and thermal Enthalpies=            -839.717503
 Sum of electronic and thermal Free Energies=         -839.778797

                     E (Thermal)             CV                S
                      KCal/Mol        Cal/Mol-Kelvin    Cal/Mol-Kelvin
 Total                  166.582             63.111            129.005
 Electronic               0.000              0.000              0.000
 Translational            0.889              2.981             42.015
 Rotational               0.889              2.981             32.054
 Vibrational            164.805             57.149             54.936
 Vibration     1          0.594              1.981              5.255
 Vibration     2          0.595              1.977              4.797
 Vibration     3          0.600              1.963              3.902
 Vibration     4          0.603              1.952              3.537
 Vibration     5          0.611              1.926              2.996
 Vibration     6          0.612              1.923              2.941
 Vibration     7          0.631              1.861              2.286
 Vibration     8          0.633              1.854              2.234
 Vibration     9          0.641              1.829              2.066
 Vibration    10          0.647              1.810              1.955
 Vibration    11          0.655              1.785              1.828
 Vibration    12          0.664              1.760              1.718
 Vibration    13          0.671              1.738              1.632
 Vibration    14          0.681              1.706              1.519
 Vibration    15          0.685              1.695              1.483
 Vibration    16          0.692              1.674              1.419
 Vibration    17          0.703              1.644              1.332
 Vibration    18          0.716              1.606              1.237
 Vibration    19          0.720              1.596              1.214
 Vibration    20          0.761              1.483              0.985
 Vibration    21          0.800              1.382              0.825
 Vibration    22          0.806              1.367              0.804
 Vibration    23          0.821              1.332              0.757
 Vibration    24          0.836              1.296              0.712
 Vibration    25          0.854              1.254              0.663
 Vibration    26          0.873              1.210              0.615
 Vibration    27          0.906              1.138              0.543
 Vibration    28          0.933              1.083              0.492

 Normal termination of Gaussian 09 at Wed Jan 25 22:08:33 2017.
