 Gaussian 09, Revision D.01,
 Gaussian 09:  ES64L-G09RevD.01 24-Apr-2013

 ------------------------------------------------------
 # opt=(modredundant,MaxCycle=1000) freq B3LYP/6-31G(d)
 ------------------------------------------------------

 -------------------------
 boat3_Alpha_B3LYP_6-31G_d
 -------------------------
 Symbolic Z-matrix:
 Charge =  0 Multiplicity = 1

 SCF Done:  E(RB3LYP) =  -839.942331604     A.U. after   14 cycles
 SCF Done:  E(RB3LYP) =  -839.963272419     A.U. after   11 cycles
 SCF Done:  E(RB3LYP) =  -839.971758630     A.U. after   12 cycles
 SCF Done:  E(RB3LYP) =  -839.974953943     A.U. after   12 cycles
 SCF Done:  E(RB3LYP) =  -839.978425318     A.U. after   12 cycles
 SCF Done:  E(RB3LYP) =  -839.980518320     A.U. after   12 cycles
 SCF Done:  E(RB3LYP) =  -839.981718032     A.U. after   12 cycles
 SCF Done:  E(RB3LYP) =  -839.982074353     A.U. after   11 cycles
 SCF Done:  E(RB3LYP) =  -839.982415941     A.U. after   11 cycles
 SCF Done:  E(RB3LYP) =  -839.982590655     A.U. after   10 cycles
 SCF Done:  E(RB3LYP) =  -839.982956849     A.U. after    7 cycles
 SCF Done:  E(RB3LYP) =  -839.982957456     A.U. after    7 cycles
 SCF Done:  E(RB3LYP) =  -839.982957902     A.U. after    7 cycles
 SCF Done:  E(RB3LYP) =  -839.982958019     A.U. after    7 cycles
 SCF Done:  E(RB3LYP) =  -839.982958017     A.U. after    6 cycles
 SCF Done:  E(RB3LYP) =  -839.982958024     A.U. after    6 cycles
 SCF Done:  E(RB3LYP) =  -839.982958070     A.U. after    7 cycles
 SCF Done:  E(RB3LYP) =  -839.982958116     A.U. after    7 cycles
 SCF Done:  E(RB3LYP) =  -839.982958162     A.U. after    6 cycles
 Optimization completed.
    -- Stationary point found.
 Normal termination of Gaussian 09 at Wed Jan 25 22:16:31 2017.

 --------------------------------------------------------------------
 #N Geom=AllCheck Guess=TCheck SCRF=Check GenChk RB3LYP/6-31G(d) Freq
 --------------------------------------------------------------------

 Structure from the checkpoint file:  "/home/iawad/Gau-25462.chk"
 -------------------------
 boat3_Alpha_B3LYP_6-31G_d
 -------------------------
 Charge =  0 Multiplicity = 1

                         Standard orientation:
 ---------------------------------------------------------------------
 Center     Atomic      Atomic             Coordinates (Angstroms)
 Number     Number       Type             X           Y           Z
 ---------------------------------------------------------------------
      1          6           0       -1.447896   -0.322644    1.007664
      2          6           0       -0.564954    1.323187   -0.756105
      3          8           0        0.668293   -0.723890   -0.127096
      4          6           0        0.811365    0.659943   -0.606553
      5          6           0       -0.632020   -1.282743    0.116932
      6          6           0       -1.410593    1.147141    0.505768
      7          1           0       -0.967060    1.755539    1.297164
      8          1           0       -1.086422    0.825775   -1.591038
      9          1           0       -0.427430   -2.156605    0.749246
     10          1           0       -2.484144   -0.669834    1.056124
     11          6           0       -1.312760   -1.821354   -1.154998
     12          1           0       -0.599633   -2.482760   -1.671170
     13          1           0       -1.584932   -1.032724   -1.859273
     14          8           0       -2.531433   -2.484841   -0.847275
     15          1           0       -2.324145   -3.267075   -0.311520
     16          8           0       -0.387050    2.686253   -1.071077
     17          1           0       -1.253783    3.098274   -0.909456
     18          8           0       -2.701957    1.726839    0.290378
     19          1           0       -3.184740    1.161567   -0.335390
     20          8           0       -0.949380   -0.405684    2.340923
     21          1           0       -0.021161   -0.115393    2.300407
     22          1           0        1.330278    0.593204   -1.570431
     23          8           0        1.543219    1.355400    0.328319
     24          1           0        2.508734    1.176441    0.180417
     25          8           0        3.154608   -1.939851    0.159780
     26          1           0        3.284331   -2.411163   -0.677095
     27          1           0        2.227925   -1.608768    0.116595
     28          8           0        4.118376    0.590930   -0.092562
     29          1           0        4.662605    0.847809    0.667066
     30          1           0        3.943327   -0.376726    0.031003
 ---------------------------------------------------------------------

 SCF Done:  E(RB3LYP) =  -839.982958162     A.U. after    1 cycles

 The electronic state is 1-A.
 Alpha  occ. eigenvalues --  -19.17592 -19.16870 -19.16282 -19.16094 -19.14828
 Alpha  occ. eigenvalues --  -19.14649 -19.14326 -19.13673 -10.29341 -10.25511
 Alpha  occ. eigenvalues --  -10.25164 -10.24445 -10.24263 -10.24051  -1.07182
 Alpha  occ. eigenvalues --   -1.04057  -1.03961  -1.02474  -1.02107  -1.01155
 Alpha  occ. eigenvalues --   -1.00654  -0.99361  -0.78285  -0.76716  -0.70354
 Alpha  occ. eigenvalues --   -0.65331  -0.64036  -0.57965  -0.55377  -0.54460
 Alpha  occ. eigenvalues --   -0.53855  -0.52716  -0.52378  -0.51011  -0.48799
 Alpha  occ. eigenvalues --   -0.48341  -0.47301  -0.46293  -0.44712  -0.43005
 Alpha  occ. eigenvalues --   -0.41728  -0.40809  -0.40058  -0.38928  -0.37189
 Alpha  occ. eigenvalues --   -0.36729  -0.35734  -0.35101  -0.33563  -0.32090
 Alpha  occ. eigenvalues --   -0.31663  -0.31363  -0.30676  -0.29397  -0.28854
 Alpha  occ. eigenvalues --   -0.28201  -0.26207  -0.25345
 Alpha virt. eigenvalues --    0.04117   0.04483   0.05940   0.07837   0.08421
 Alpha virt. eigenvalues --    0.09479   0.09950   0.11266   0.11989   0.14095
 Alpha virt. eigenvalues --    0.14912   0.15111   0.16099   0.17627   0.18967

 Mulliken charges:
               1
     1  C    0.104404
     2  C    0.107825
     3  O   -0.567411
     4  C    0.327005
     5  C    0.087753
     6  C    0.076432
     7  H    0.183102
     8  H    0.100385
     9  H    0.143263
    10  H    0.156901
    11  C   -0.069066
    12  H    0.134353
    13  H    0.159546
    14  O   -0.606354
    15  H    0.397740
    16  O   -0.630982
    17  H    0.403404
    18  O   -0.634585
    19  H    0.392219
    20  O   -0.631121
    21  H    0.399515
    22  H    0.140302
    23  O   -0.640663
    24  H    0.437763
    25  O   -0.812462
    26  H    0.397536
    27  H    0.436446
    28  O   -0.819097
    29  H    0.398988
    30  H    0.426858
 Sum of Mulliken charges =   0.00000

 Dipole moment (field-independent basis, Debye):
    X=              0.6093    Y=             -3.5984    Z=             -1.8680  Tot=              4.0999
 Quadrupole moment (field-independent basis, Debye-Ang):
   XX=            -81.1612   YY=            -82.0728   ZZ=            -87.2208
   XY=             -2.6853   XZ=              6.0482   YZ=              4.0602

  Exact polarizability: 104.057   3.061  98.706   1.705   0.995  81.207
 Approx polarizability: 136.005   4.915 131.484   3.395   1.133 118.117

 ******    1 imaginary frequencies (negative Signs) ******

                      1                      2                      3
                      A                      A                      A
 Frequencies --    -64.5847                21.6930                41.0215
 Red. masses --      6.7224                 5.6013                 5.8393
 Frc consts  --      0.0165                 0.0016                 0.0058
 IR Inten    --      2.2627                 0.2569                 1.0003

                      4                      5                      6
                      A                      A                      A
 Frequencies --     54.3959                65.5652                98.6058
 Red. masses --      7.0989                 4.5020                 4.6809
 Frc consts  --      0.0124                 0.0114                 0.0268
 IR Inten    --      0.9320                 7.6163                 5.5364

                      7                      8                      9
                      A                      A                      A
 Frequencies --    129.2851               166.6247               191.3101
 Red. masses --      5.9251                 4.9270                 3.6999
 Frc consts  --      0.0584                 0.0806                 0.0798
 IR Inten    --      0.3502                14.1354                 2.6947

                     10                     11                     12
                      A                      A                      A
 Frequencies --    198.7550               227.7346               254.5401
 Red. masses --      6.5836                 3.5275                 1.1681
 Frc consts  --      0.1532                 0.1078                 0.0446
 IR Inten    --     10.3586                 0.2696                92.0545

                     13                     14                     15
                      A                      A                      A
 Frequencies --    263.6076               279.3858               291.7975
 Red. masses --      3.5044                 4.3222                 3.6046
 Frc consts  --      0.1435                 0.1988                 0.1808
 IR Inten    --     28.7112                44.4261                24.7501

                     16                     17                     18
                      A                      A                      A
 Frequencies --    318.9762               333.9897               337.8862
 Red. masses --      2.5447                 1.2980                 1.6674
 Frc consts  --      0.1525                 0.0853                 0.1122
 IR Inten    --     64.7107                36.1362                25.1146

                     19                     20                     21
                      A                      A                      A
 Frequencies --    341.8909               347.7590               385.7207
 Red. masses --      1.5189                 1.8110                 1.3068
 Frc consts  --      0.1046                 0.1290                 0.1146
 IR Inten    --     83.3997                46.7068               119.4333

                     22                     23                     24
                      A                      A                      A
 Frequencies --    390.8304               452.8929               460.2111
 Red. masses --      3.2924                 3.0214                 1.3303
 Frc consts  --      0.2963                 0.3651                 0.1660
 IR Inten    --     22.1832                 3.2263                79.8964

                     25                     26                     27
                      A                      A                      A
 Frequencies --    472.7745               496.5592               504.8333
 Red. masses --      1.2061                 1.6028                 2.8302
 Frc consts  --      0.1588                 0.2328                 0.4250
 IR Inten    --    130.8023                 7.8803                30.8117

                     28                     29                     30
                      A                      A                      A
 Frequencies --    527.5040               550.8414               573.7363
 Red. masses --      2.9602                 3.8867                 5.4165
 Frc consts  --      0.4853                 0.6948                 1.0505
 IR Inten    --     36.6811                34.2972                 5.8635

                     31                     32                     33
                      A                      A                      A
 Frequencies --    700.0156               717.6278               783.3980
 Red. masses --      2.7690                 1.2252                 2.5591
 Frc consts  --      0.7994                 0.3718                 0.9254
 IR Inten    --     10.6383                54.7218                 3.5568

                     34                     35                     36
                      A                      A                      A
 Frequencies --    796.1427               822.1132               896.7121
 Red. masses --      1.2186                 3.3310                 4.3190
 Frc consts  --      0.4551                 1.3265                 2.0462
 IR Inten    --    169.9588                42.5991               167.8355

                     37                     38                     39
                      A                      A                      A
 Frequencies --    931.3535               988.3473              1014.2997
 Red. masses --      2.8378                 2.0574                 1.4341
 Frc consts  --      1.4503                 1.1841                 0.8693
 IR Inten    --     30.0627                24.6396               231.5721

                     40                     41                     42
                      A                      A                      A
 Frequencies --   1032.3951              1051.7840              1058.7386
 Red. masses --      1.6906                 3.7216                 3.8265
 Frc consts  --      1.0616                 2.4257                 2.5272
 IR Inten    --     28.8852               126.3759               124.4870

                     43                     44                     45
                      A                      A                      A
 Frequencies --   1085.8766              1095.1293              1121.0019
 Red. masses --      3.8774                 3.7648                 2.4776
 Frc consts  --      2.6937                 2.6603                 1.8344
 IR Inten    --     71.1929                50.3865                95.1915

                     46                     47                     48
                      A                      A                      A
 Frequencies --   1134.8963              1155.8160              1173.5940
 Red. masses --      3.2529                 3.7570                 2.6193
 Frc consts  --      2.4685                 2.9571                 2.1255
 IR Inten    --     49.1062                35.1625                97.1658

                     49                     50                     51
                      A                      A                      A
 Frequencies --   1191.8850              1234.8318              1255.5277
 Red. masses --      1.2317                 1.3562                 1.3109
 Frc consts  --      1.0309                 1.2184                 1.2175
 IR Inten    --     35.3792                 6.6655                41.0460

                     52                     53                     54
                      A                      A                      A
 Frequencies --   1299.5532              1321.7361              1326.8300
 Red. masses --      1.3417                 1.2789                 1.3675
 Frc consts  --      1.3350                 1.3163                 1.4185
 IR Inten    --     22.9525                15.8627                 9.7872

                     55                     56                     57
                      A                      A                      A
 Frequencies --   1351.2190              1366.7553              1382.0882
 Red. masses --      1.3489                 1.2235                 1.3486
 Frc consts  --      1.4510                 1.3466                 1.5178
 IR Inten    --      3.1335                 9.4848                13.6848

                     58                     59                     60
                      A                      A                      A
 Frequencies --   1391.0873              1419.3867              1425.7730
 Red. masses --      1.2554                 1.2561                 1.3437
 Frc consts  --      1.4313                 1.4911                 1.6093
 IR Inten    --     49.0786                26.2858                 5.4730

                     61                     62                     63
                      A                      A                      A
 Frequencies --   1441.2526              1448.0510              1453.5631
 Red. masses --      1.3354                 1.1784                 1.2264
 Frc consts  --      1.6344                 1.4558                 1.5267
 IR Inten    --     16.6062                46.6555                47.3698

                     64                     65                     66
                      A                      A                      A
 Frequencies --   1463.3543              1541.7383              1563.5059
 Red. masses --      1.4249                 1.0909                 1.3277
 Frc consts  --      1.7978                 1.5278                 1.9123
 IR Inten    --     38.7102                 2.5556                30.2940

                     67                     68                     69
                      A                      A                      A
 Frequencies --   1717.7278              1735.3529              2980.9083
 Red. masses --      1.0799                 1.0696                 1.0804
 Frc consts  --      1.8773                 1.8978                 5.6564
 IR Inten    --    100.6860                36.0495                70.3994

                     70                     71                     72
                      A                      A                      A
 Frequencies --   3014.4337              3044.3059              3062.5531
 Red. masses --      1.0740                 1.0851                 1.0874
 Frc consts  --      5.7498                 5.9250                 6.0088
 IR Inten    --     54.2081                26.0589                47.1033

                     73                     74                     75
                      A                      A                      A
 Frequencies --   3106.0946              3123.4106              3138.1938
 Red. masses --      1.0863                 1.0864                 1.0910
 Frc consts  --      6.1751                 6.2443                 6.3305
 IR Inten    --     13.8736                 8.9109                31.8537

                     76                     77                     78
                      A                      A                      A
 Frequencies --   3301.5323              3413.2783              3512.1750
 Red. masses --      1.0676                 1.0624                 1.0582
 Frc consts  --      6.8564                 7.2929                 7.6910
 IR Inten    --    535.2563              1050.1851               731.7218

                     79                     80                     81
                      A                      A                      A
 Frequencies --   3700.0398              3701.7546              3718.0403
 Red. masses --      1.0660                 1.0654                 1.0661
 Frc consts  --      8.5981                 8.6015                 8.6834
 IR Inten    --     22.3965                39.4694                 9.4246

                     82                     83                     84
                      A                      A                      A
 Frequencies --   3734.2345              3795.7559              3797.3472
 Red. masses --      1.0662                 1.0677                 1.0691
 Frc consts  --      8.7602                 9.0636                 9.0832
 IR Inten    --     17.7441                52.4596                68.6848

 - Thermochemistry -
 -------------------
 Temperature   298.150 Kelvin.  Pressure   1.00000 Atm.
 Atom     1 has atomic number  6 and mass  12.00000

 Molecular mass:   216.08452 amu.
 Principal axes and moments of inertia in atomic units:
                           1         2         3
     Eigenvalues --  2520.962053836.299185028.61305
           X            0.99997  -0.00620   0.00555
           Y            0.00614   0.99992   0.01061
           Z           -0.00561  -0.01057   0.99993
 This molecule is an asymmetric top.
 Rotational symmetry number  1.
 Warning -- assumption of classical behavior for rotation
           may cause significant error
 Rotational temperatures (Kelvin)      0.03436     0.02258     0.01722
 Rotational constants (GHZ):           0.71589     0.47044     0.35889
    1 imaginary frequencies ignored.
 Zero-point vibrational energy     650859.7 (Joules/Mol)
                                  155.55920 (Kcal/Mol)
 Warning -- explicit consideration of  29 degrees of freedom as
           vibrations may cause significant error
 Vibrational temperatures:     31.21    59.02    78.26    94.33   141.87
          (Kelvin)            186.01   239.74   275.25   285.96   327.66
                              366.23   379.27   401.97   419.83   458.93
                              480.54   486.14   491.90   500.35   554.97
                              562.32   651.61   662.14   680.22   714.44
                              726.34   758.96   792.54   825.48  1007.17
                             1032.51  1127.13  1145.47  1182.84  1290.17
                             1340.01  1422.01  1459.35  1485.38  1513.28
                             1523.29  1562.33  1575.64  1612.87  1632.86
                             1662.96  1688.54  1714.85  1776.65  1806.42
                             1869.76  1901.68  1909.01  1944.10  1966.45
                             1988.51  2001.46  2042.18  2051.37  2073.64
                             2083.42  2091.35  2105.44  2218.21  2249.53
                             2471.42  2496.78  4288.86  4337.09  4380.07
                             4406.33  4468.97  4493.89  4515.16  4750.16
                             4910.94  5053.23  5323.53  5325.99  5349.42
                             5372.72  5461.24  5463.53

 Zero-point correction=                           0.247899 (Hartree/Particle)
 Thermal correction to Energy=                    0.264943
 Thermal correction to Enthalpy=                  0.265888
 Thermal correction to Gibbs Free Energy=         0.202976
 Sum of electronic and zero-point Energies=           -839.735059
 Sum of electronic and thermal Energies=              -839.718015
 Sum of electronic and thermal Enthalpies=            -839.717071
 Sum of electronic and thermal Free Energies=         -839.779982

                     E (Thermal)             CV                S
                      KCal/Mol        Cal/Mol-Kelvin    Cal/Mol-Kelvin
 Total                  166.254             62.959            132.408
 Electronic               0.000              0.000              0.000
 Translational            0.889              2.981             42.015
 Rotational               0.889              2.981             32.253
 Vibrational            164.477             56.998             58.140
 Vibration     1          0.593              1.985              6.473
 Vibration     2          0.594              1.981              5.209
 Vibration     3          0.596              1.976              4.651
 Vibration     4          0.597              1.971              4.282
 Vibration     5          0.604              1.950              3.482
 Vibration     6          0.612              1.924              2.957
 Vibration     7          0.624              1.884              2.473
 Vibration     8          0.634              1.852              2.215
 Vibration     9          0.637              1.842              2.145
 Vibration    10          0.651              1.799              1.897
 Vibration    11          0.665              1.755              1.699
 Vibration    12          0.670              1.740              1.638
 Vibration    13          0.680              1.712              1.537
 Vibration    14          0.687              1.689              1.464
 Vibration    15          0.705              1.637              1.315
 Vibration    16          0.716              1.608              1.241
 Vibration    17          0.718              1.600              1.222
 Vibration    18          0.721              1.592              1.203
 Vibration    19          0.725              1.580              1.176
 Vibration    20          0.754              1.501              1.017
 Vibration    21          0.759              1.490              0.997
 Vibration    22          0.811              1.354              0.787
 Vibration    23          0.818              1.338              0.765
 Vibration    24          0.830              1.310              0.730
 Vibration    25          0.852              1.258              0.667
 Vibration    26          0.860              1.239              0.646
 Vibration    27          0.882              1.189              0.593
 Vibration    28          0.906              1.138              0.542
 Vibration    29          0.930              1.088              0.497

 Normal termination of Gaussian 09 at Wed Jan 25 22:24:02 2017.
