 Gaussian 09, Revision D.01,
 Gaussian 09:  EM64L-G09RevD.01 24-Apr-2013

 ---------------------------
 # opt=cartesian freq hf/gen
 ---------------------------

 ----
 chch
 ----
 Symbolic Z-matrix:
 Charge =  0 Multiplicity = 1

 SCF Done:  E(RHF) =  -76.6628755267     A.U. after    8 cycles
 SCF Done:  E(RHF) =  -76.6629318202     A.U. after    7 cycles
 SCF Done:  E(RHF) =  -76.6629338586     A.U. after    7 cycles
 Optimization completed.
    -- Stationary point found.
 Normal termination of Gaussian 09 at Fri Nov 18 00:31:31 2016.

 ---------------------------------------------------------------
 #N Geom=AllCheck Guess=TCheck SCRF=Check GenChk RHF/ChkBas Freq
 ---------------------------------------------------------------

 Structure from the checkpoint file:  "/home/chongee/BasisSet/H/New/Gau-14962.chk"
 ----
 chch
 ----
 Charge =  0 Multiplicity = 1

                         Standard orientation:
 ---------------------------------------------------------------------
 Center     Atomic      Atomic             Coordinates (Angstroms)
 Number     Number       Type             X           Y           Z
 ---------------------------------------------------------------------
      1          6           0        0.000000    0.000000    0.602963
      2          6           0        0.000000    0.000000   -0.602963
      3          1           0        0.000000    0.000000    1.667284
      4          1           0        0.000000    0.000000   -1.667284
 ---------------------------------------------------------------------

 SCF Done:  E(RHF) =  -76.6629338586     A.U. after    1 cycles

 The electronic state is 1-SGG.
 Alpha  occ. eigenvalues --  -11.26839 -11.26547  -1.02956  -0.75464  -0.66491
 Alpha  occ. eigenvalues --   -0.39685  -0.39685
 Alpha virt. eigenvalues --    0.21887   0.21887   0.22020   0.26404   0.35047
 Alpha virt. eigenvalues --    0.35594   0.69765   0.69765   0.84949   0.86979
 Alpha virt. eigenvalues --    0.86979   0.88511   1.21204   1.21972   1.67159

 Mulliken charges:
               1
     1  C   -0.176714
     2  C   -0.176714
     3  H    0.176714
     4  H    0.176714
 Sum of Mulliken charges =   0.00000

 Dipole moment (field-independent basis, Debye):
    X=              0.0000    Y=              0.0000    Z=              0.0000  Tot=              0.0000
 Quadrupole moment (field-independent basis, Debye-Ang):
   XX=            -13.2899   YY=            -13.2899   ZZ=             -6.8875
   XY=              0.0000   XZ=              0.0000   YZ=              0.0000

  Exact polarizability:   8.540   0.000   8.540   0.000   0.000  28.651
 Approx polarizability:   6.294   0.000   6.294   0.000   0.000  29.287

                      1                      2                      3
                     PIG                    PIG                    PIU
 Frequencies --    817.2306               817.2306               905.8989
 Red. masses --      1.5703                 1.5703                 1.0848
 Frc consts  --      0.6179                 0.6179                 0.5245
 IR Inten    --      0.0000                 0.0000               125.4206
 Raman Activ --      7.3661                 7.3661                 0.0000

                      4                      5                      6
                     PIU                    SGG                    SGU
 Frequencies --    905.8989              2175.2010              3585.9248
 Red. masses --      1.0848                 3.6600                 1.0848
 Frc consts  --      0.5245                10.2031                 8.2188
 IR Inten    --    125.4206                 0.0000               100.8592
 Raman Activ --      0.0000                71.6820                 0.0000

                      7
                     SGG
 Frequencies --   3716.1399
 Red. masses --      1.2463
 Frc consts  --     10.1408
 IR Inten    --      0.0000
 Raman Activ --     64.3063

 - Thermochemistry -
 -------------------
 Temperature   298.150 Kelvin.  Pressure   1.00000 Atm.
 Atom     1 has atomic number  6 and mass  12.00000

 Molecular mass:    26.01565 amu.
 Principal axes and moments of inertia in atomic units:
                           1         2         3
     Eigenvalues --     0.00000  51.16883  51.16883
           X            0.00000  -0.69832   0.71578
           Y            0.00000   0.71578   0.69832
           Z            1.00000   0.00000   0.00000
 This molecule is a prolate symmetric top.
 Rotational symmetry number  2.
 Rotational temperature (Kelvin)      1.69271
 Rotational constant (GHZ):          35.270326
 Zero-point vibrational energy      77299.8 (Joules/Mol)
                                   18.47511 (Kcal/Mol)
 Vibrational temperatures:   1175.81  1175.81  1303.38  1303.38  3129.63
          (Kelvin)           5159.34  5346.69

 Zero-point correction=                           0.029442 (Hartree/Particle)
 Thermal correction to Energy=                    0.032055
 Thermal correction to Enthalpy=                  0.033000
 Thermal correction to Gibbs Free Energy=         0.010549
 Sum of electronic and zero-point Energies=            -76.633492
 Sum of electronic and thermal Energies=               -76.630878
 Sum of electronic and thermal Enthalpies=             -76.629934
 Sum of electronic and thermal Free Energies=          -76.652385

                     E (Thermal)             CV                S
                      KCal/Mol        Cal/Mol-Kelvin    Cal/Mol-Kelvin
 Total                   20.115              7.204             47.252
 Electronic               0.000              0.000              0.000
 Translational            0.889              2.981             35.704
 Rotational               0.592              1.987             10.886
 Vibrational             18.634              2.236              0.661

 Optimization completed.
    -- Stationary point found.
 Normal termination of Gaussian 09 at Fri Nov 18 00:31:32 2016.
