 Gaussian 09, Revision E.01,
 Gaussian 09:  ES64L-G09RevE.01 30-Nov-2015

 -----------------------------------------
 # opt=(MaxCycle=1000) freq B3LYP/6-31G(d)
 -----------------------------------------

 --------------------------------------------------
 ./chairs/2/glo_1w_beta_ircr_chair2_B3LYP_631Gd.out
 --------------------------------------------------
 Symbolic Z-matrix:
 Charge =  0 Multiplicity = 1

 SCF Done:  E(RB3LYP) =  -839.987242831     A.U. after   14 cycles
 SCF Done:  E(RB3LYP) =  -839.994830810     A.U. after   11 cycles
 SCF Done:  E(RB3LYP) =  -839.998941146     A.U. after   11 cycles
 SCF Done:  E(RB3LYP) =  -840.001658680     A.U. after   12 cycles
 SCF Done:  E(RB3LYP) =  -840.002673544     A.U. after   11 cycles
 SCF Done:  E(RB3LYP) =  -840.002586901     A.U. after   11 cycles
 SCF Done:  E(RB3LYP) =  -840.002999970     A.U. after    9 cycles
 SCF Done:  E(RB3LYP) =  -840.003290347     A.U. after   11 cycles
 SCF Done:  E(RB3LYP) =  -840.003401734     A.U. after   11 cycles
 SCF Done:  E(RB3LYP) =  -840.003436439     A.U. after   10 cycles
 SCF Done:  E(RB3LYP) =  -840.003462639     A.U. after    9 cycles
 SCF Done:  E(RB3LYP) =  -840.003481848     A.U. after   10 cycles
 SCF Done:  E(RB3LYP) =  -840.003501492     A.U. after    8 cycles
 SCF Done:  E(RB3LYP) =  -840.003533605     A.U. after   10 cycles
 SCF Done:  E(RB3LYP) =  -840.003554069     A.U. after    9 cycles
 SCF Done:  E(RB3LYP) =  -840.003566893     A.U. after    8 cycles
 SCF Done:  E(RB3LYP) =  -840.003572021     A.U. after    7 cycles
 SCF Done:  E(RB3LYP) =  -840.003574354     A.U. after    7 cycles
 SCF Done:  E(RB3LYP) =  -840.003573892     A.U. after    7 cycles
 Optimization completed.
    -- Stationary point found.
 Normal termination of Gaussian 09 at Sun Jan 15 13:24:49 2017.

 --------------------------------------------------------------------
 #N Geom=AllCheck Guess=TCheck SCRF=Check GenChk RB3LYP/6-31G(d) Freq
 --------------------------------------------------------------------

 Structure from the checkpoint file:  "/scratch/10462981.yak.local/Gau-23132.chk"
 --------------------------------------------------
 ./chairs/2/glo_1w_beta_ircr_chair2_B3LYP_631Gd.out
 --------------------------------------------------
 Charge =  0 Multiplicity = 1

                         Standard orientation:
 ---------------------------------------------------------------------
 Center     Atomic      Atomic             Coordinates (Angstroms)
 Number     Number       Type             X           Y           Z
 ---------------------------------------------------------------------
      1          6           0        1.711422    0.079001    0.380359
      2          8           0        1.218539    0.528878   -0.869141
      3          6           0        1.302148   -1.365786    0.707908
      4          6           0       -0.225112   -1.516642    0.601079
      5          6           0       -0.717823   -1.037834   -0.783881
      6          6           0       -0.210323    0.367584   -1.151990
      7          1           0        1.618618   -1.587005    1.736193
      8          1           0       -1.809844   -0.997963   -0.779810
      9          1           0       -0.264121    0.431730   -2.241779
     10          1           0       -0.486066   -2.574009    0.699784
     11          8           0        1.886174   -2.285427   -0.213903
     12          8           0       -0.851217   -0.827758    1.692571
     13          8           0       -0.372512   -1.995106   -1.776210
     14          1           0       -0.317729   -0.026533    1.873581
     15          1           0        2.844190   -2.133760   -0.242653
     16          1           0        0.575919   -2.186287   -1.663737
     17          6           0       -1.034415    1.548715   -0.588516
     18          8           0       -2.359232    1.502142   -1.065013
     19          1           0       -0.573392    2.479679   -0.942206
     20          1           0       -0.998360    1.571851    0.506600
     21          1           0       -2.887483    1.012245   -0.395895
     22          8           0        1.290845    0.874442    1.468665
     23          1           0        1.530897    1.806031    1.242180
     24          1           0        2.804448    0.146071    0.262376
     25          1           0        1.789742    2.442270   -0.678848
     26          8           0        1.969411    3.092188    0.030437
     27          1           0        2.873563    3.406506   -0.120947
     28          8           0       -3.438668    0.048464    1.054532
     29          1           0       -2.607067   -0.338103    1.409446
     30          1           0       -3.795413    0.594465    1.770455
 ---------------------------------------------------------------------

 SCF Done:  E(RB3LYP) =  -840.003573892     A.U. after    1 cycles

 The electronic state is 1-A.
 Alpha  occ. eigenvalues --  -19.18520 -19.17864 -19.17534 -19.17334 -19.16665
 Alpha  occ. eigenvalues --  -19.14524 -19.12817 -19.11446 -10.30937 -10.26221
 Alpha  occ. eigenvalues --  -10.24995 -10.23414 -10.23134 -10.22014  -1.08939
 Alpha  occ. eigenvalues --   -1.05505  -1.03683  -1.03081  -1.01985  -1.00434
 Alpha  occ. eigenvalues --   -1.00173  -0.98899  -0.78176  -0.77028  -0.68918
 Alpha  occ. eigenvalues --   -0.66109  -0.63508  -0.58079  -0.56458  -0.55204
 Alpha  occ. eigenvalues --   -0.54122  -0.53049  -0.52180  -0.50116  -0.49319
 Alpha  occ. eigenvalues --   -0.48414  -0.46253  -0.44675  -0.44472  -0.43651
 Alpha  occ. eigenvalues --   -0.41396  -0.40997  -0.39864  -0.39131  -0.38751
 Alpha  occ. eigenvalues --   -0.38058  -0.36534  -0.35108  -0.33254  -0.32629
 Alpha  occ. eigenvalues --   -0.31500  -0.31086  -0.30488  -0.29549  -0.29158
 Alpha  occ. eigenvalues --   -0.28815  -0.25659  -0.23788
 Alpha virt. eigenvalues --    0.03460   0.04112   0.06556   0.08924   0.09412
 Alpha virt. eigenvalues --    0.11748   0.12544   0.12825   0.13941   0.14927
 Alpha virt. eigenvalues --    0.16580   0.17089   0.17664   0.17925   0.19306

 Mulliken charges:
               1
     1  C    0.298637
     2  O   -0.528004
     3  C    0.080965
     4  C    0.097217
     5  C    0.090634
     6  C    0.091437
     7  H    0.155763
     8  H    0.166466
     9  H    0.170194
    10  H    0.170870
    11  O   -0.633315
    12  O   -0.680333
    13  O   -0.649117
    14  H    0.444131
    15  H    0.404836
    16  H    0.415232
    17  C   -0.063701
    18  O   -0.652834
    19  H    0.138995
    20  H    0.105469
    21  H    0.439682
    22  O   -0.669129
    23  H    0.444942
    24  H    0.117085
    25  H    0.425839
    26  O   -0.798463
    27  H    0.403594
    28  O   -0.818323
    29  H    0.435816
    30  H    0.395414
 Sum of Mulliken charges =  -0.00000

 Dipole moment (field-independent basis, Debye):
    X=              6.0132    Y=              1.3147    Z=              2.7604  Tot=              6.7458
 Quadrupole moment (field-independent basis, Debye-Ang):
   XX=            -71.5193   YY=            -86.7921   ZZ=            -87.1324
   XY=              1.4509   XZ=            -10.4269   YZ=             -0.9250

  Exact polarizability: 102.941  -0.349  94.176  -0.672   0.807  84.319
 Approx polarizability: 136.668   0.590 124.397  -1.660   5.010 126.802

                      1                      2                      3
                      A                      A                      A
 Frequencies --     48.3891                75.6376                92.3499
 Red. masses --      5.1232                 5.7145                 5.6688
 Frc consts  --      0.0071                 0.0193                 0.0285
 IR Inten    --      5.9141                 1.5048                 1.6433

                      4                      5                      6
                      A                      A                      A
 Frequencies --    113.5684               146.7861               150.2250
 Red. masses --      6.0287                 5.6346                 3.8555
 Frc consts  --      0.0458                 0.0715                 0.0513
 IR Inten    --      2.1153                 4.0290                 2.4597

                      7                      8                      9
                      A                      A                      A
 Frequencies --    163.4087               189.7997               218.0286
 Red. masses --      5.3584                 6.1509                 6.1913
 Frc consts  --      0.0843                 0.1306                 0.1734
 IR Inten    --      5.2596                 2.7751                14.9730

                     10                     11                     12
                      A                      A                      A
 Frequencies --    223.9611               229.4192               246.5136
 Red. masses --      3.6207                 1.1341                 4.4534
 Frc consts  --      0.1070                 0.0352                 0.1595
 IR Inten    --      8.5177               110.2613                 7.9085

                     13                     14                     15
                      A                      A                      A
 Frequencies --    252.6981               259.5324               276.9113
 Red. masses --      3.6426                 1.3616                 1.4313
 Frc consts  --      0.1370                 0.0540                 0.0647
 IR Inten    --     33.5586               129.3776                 8.8907

                     16                     17                     18
                      A                      A                      A
 Frequencies --    288.7574               318.9681               352.5878
 Red. masses --      2.5553                 4.5967                 2.1955
 Frc consts  --      0.1255                 0.2755                 0.1608
 IR Inten    --     52.8948                10.0766                42.3609

                     19                     20                     21
                      A                      A                      A
 Frequencies --    361.6654               378.4331               421.0705
 Red. masses --      1.5033                 3.7248                 2.7615
 Frc consts  --      0.1159                 0.3143                 0.2885
 IR Inten    --     66.2222                17.3891                 9.9280

                     22                     23                     24
                      A                      A                      A
 Frequencies --    439.3006               448.0950               505.1664
 Red. masses --      1.6779                 4.8467                 5.1345
 Frc consts  --      0.1908                 0.5734                 0.7720
 IR Inten    --     20.4858                 6.7910                12.6312

                     25                     26                     27
                      A                      A                      A
 Frequencies --    531.8740               545.5171               578.2753
 Red. masses --      2.4699                 1.4726                 2.3383
 Frc consts  --      0.4117                 0.2582                 0.4607
 IR Inten    --     40.6060               102.1957                35.8946

                     28                     29                     30
                      A                      A                      A
 Frequencies --    597.2629               620.9756               641.2282
 Red. masses --      1.4787                 5.5263                 4.2410
 Frc consts  --      0.3108                 1.2555                 1.0274
 IR Inten    --     74.0096                 6.7492                34.4832

                     31                     32                     33
                      A                      A                      A
 Frequencies --    662.6825               737.1068               773.8091
 Red. masses --      1.1724                 1.0935                 2.3537
 Frc consts  --      0.3034                 0.3501                 0.8304
 IR Inten    --    205.8685               201.5982                46.2223

                     34                     35                     36
                      A                      A                      A
 Frequencies --    787.9850               838.2698               851.8757
 Red. masses --      1.1708                 2.0333                 1.4677
 Frc consts  --      0.4283                 0.8418                 0.6275
 IR Inten    --    112.8108                41.8872               101.2535

                     37                     38                     39
                      A                      A                      A
 Frequencies --    880.7976               961.8855              1014.8967
 Red. masses --      2.3934                 2.1997                 3.7267
 Frc consts  --      1.0940                 1.1991                 2.2616
 IR Inten    --     68.5285                27.0244                83.8488

                     40                     41                     42
                      A                      A                      A
 Frequencies --   1045.4534              1062.8262              1076.9801
 Red. masses --      3.6653                 3.0203                 4.5857
 Frc consts  --      2.3603                 2.0102                 3.1338
 IR Inten    --     54.6485                57.8841                75.0153

                     43                     44                     45
                      A                      A                      A
 Frequencies --   1083.2169              1099.0780              1103.2633
 Red. masses --      3.6597                 6.1561                 2.5460
 Frc consts  --      2.5301                 4.3814                 1.8259
 IR Inten    --     57.2856               172.8003                54.8423

                     46                     47                     48
                      A                      A                      A
 Frequencies --   1115.4022              1123.8832              1143.3013
 Red. masses --      4.6639                 3.0983                 2.4700
 Frc consts  --      3.4187                 2.3057                 1.9023
 IR Inten    --     37.2119                39.5976                28.2626

                     49                     50                     51
                      A                      A                      A
 Frequencies --   1221.9582              1246.5741              1272.9448
 Red. masses --      1.2784                 1.1257                 1.2656
 Frc consts  --      1.1246                 1.0307                 1.2082
 IR Inten    --     68.0560                11.5789                16.2405

                     52                     53                     54
                      A                      A                      A
 Frequencies --   1313.2263              1329.8436              1330.0198
 Red. masses --      1.1154                 1.2116                 1.4188
 Frc consts  --      1.1334                 1.2624                 1.4787
 IR Inten    --      2.2597                15.7787                11.3717

                     55                     56                     57
                      A                      A                      A
 Frequencies --   1357.0707              1378.1653              1386.3147
 Red. masses --      1.2045                 1.3044                 1.3561
 Frc consts  --      1.3069                 1.4597                 1.5355
 IR Inten    --      8.0334                 9.6201                 4.4626

                     58                     59                     60
                      A                      A                      A
 Frequencies --   1407.0988              1416.4514              1428.9777
 Red. masses --      1.4485                 1.2272                 1.3062
 Frc consts  --      1.6897                 1.4506                 1.5715
 IR Inten    --      3.2254                14.6456                 4.8604

                     61                     62                     63
                      A                      A                      A
 Frequencies --   1445.7043              1486.7527              1497.7074
 Red. masses --      1.4429                 1.1943                 1.2419
 Frc consts  --      1.7768                 1.5554                 1.6413
 IR Inten    --     12.3567                91.9315                89.6327

                     64                     65                     66
                      A                      A                      A
 Frequencies --   1503.4576              1514.2912              1538.3258
 Red. masses --      1.1791                 1.4288                 1.0851
 Frc consts  --      1.5703                 1.9304                 1.5130
 IR Inten    --     15.8862                89.5553                 1.3106

                     67                     68                     69
                      A                      A                      A
 Frequencies --   1704.0845              1733.1806              3004.5151
 Red. masses --      1.0786                 1.0741                 1.0854
 Frc consts  --      1.8454                 1.9009                 5.7729
 IR Inten    --     72.5742                55.0137                82.3693

                     70                     71                     72
                      A                      A                      A
 Frequencies --   3047.5003              3048.5805              3087.7455
 Red. masses --      1.0613                 1.0818                 1.1034
 Frc consts  --      5.8075                 5.9239                 6.1979
 IR Inten    --     37.3156                51.0409                22.3161

                     73                     74                     75
                      A                      A                      A
 Frequencies --   3107.4184              3115.0446              3122.6245
 Red. masses --      1.0869                 1.0901                 1.0862
 Frc consts  --      6.1838                 6.2325                 6.2403
 IR Inten    --     26.4728                28.2629                12.4395

                     76                     77                     78
                      A                      A                      A
 Frequencies --   3436.0251              3485.0539              3543.3554
 Red. masses --      1.0662                 1.0643                 1.0621
 Frc consts  --      7.4168                 7.6162                 7.8570
 IR Inten    --    442.6677               268.5551               675.2886

                     79                     80                     81
                      A                      A                      A
 Frequencies --   3587.8688              3613.1938              3681.3883
 Red. masses --      1.0657                 1.0542                 1.0656
 Frc consts  --      8.0827                 8.1090                 8.5086
 IR Inten    --    112.2712               242.9729               109.5492

                     82                     83                     84
                      A                      A                      A
 Frequencies --   3739.5166              3806.3815              3807.9913
 Red. masses --      1.0662                 1.0702                 1.0740
 Frc consts  --      8.7846                 9.1355                 9.1762
 IR Inten    --     12.6024                72.2766                82.8324

 - Thermochemistry -
 -------------------
 Temperature   298.150 Kelvin.  Pressure   1.00000 Atm.
 Atom     1 has atomic number  6 and mass  12.00000

 Molecular mass:   216.08452 amu.
 Principal axes and moments of inertia in atomic units:
                           1         2         3
     Eigenvalues --  2682.992363028.497743975.08034
           X            0.99937   0.03153  -0.01628
           Y           -0.03164   0.99948  -0.00669
           Z            0.01607   0.00720   0.99984
 This molecule is an asymmetric top.
 Rotational symmetry number  1.
 Warning -- assumption of classical behavior for rotation
           may cause significant error
 Rotational temperatures (Kelvin)      0.03228     0.02860     0.02179
 Rotational constants (GHZ):           0.67266     0.59592     0.45401
 Zero-point vibrational energy     656902.2 (Joules/Mol)
                                  157.00339 (Kcal/Mol)
 Warning -- explicit consideration of  28 degrees of freedom as
           vibrations may cause significant error
 Vibrational temperatures:     69.62   108.83   132.87   163.40   211.19
          (Kelvin)            216.14   235.11   273.08   313.69   322.23
                              330.08   354.68   363.58   373.41   398.41
                              415.46   458.92   507.29   520.36   544.48
                              605.83   632.05   644.71   726.82   765.25
                              784.88   832.01   859.33   893.44   922.58
                              953.45  1060.53  1113.34  1133.73  1206.08
                             1225.66  1267.27  1383.94  1460.21  1504.17
                             1529.17  1549.53  1558.51  1581.33  1587.35
                             1604.81  1617.02  1644.95  1758.12  1793.54
                             1831.48  1889.44  1913.35  1913.60  1952.52
                             1982.87  1994.60  2024.50  2037.96  2055.98
                             2080.04  2139.10  2154.86  2163.14  2178.72
                             2213.30  2451.79  2493.66  4322.82  4384.67
                             4386.22  4442.57  4470.88  4481.85  4492.75
                             4943.67  5014.21  5098.09  5162.14  5198.57
                             5296.69  5380.32  5476.53  5478.84

 Zero-point correction=                           0.250201 (Hartree/Particle)
 Thermal correction to Energy=                    0.267051
 Thermal correction to Enthalpy=                  0.267995
 Thermal correction to Gibbs Free Energy=         0.207646
 Sum of electronic and zero-point Energies=           -839.753373
 Sum of electronic and thermal Energies=              -839.736523
 Sum of electronic and thermal Enthalpies=            -839.735579
 Sum of electronic and thermal Free Energies=         -839.795928

                     E (Thermal)             CV                S
                      KCal/Mol        Cal/Mol-Kelvin    Cal/Mol-Kelvin
 Total                  167.577             63.686            127.014
 Electronic               0.000              0.000              0.000
 Translational            0.889              2.981             42.015
 Rotational               0.889              2.981             31.846
 Vibrational            165.799             57.724             53.153
 Vibration     1          0.595              1.978              4.882
 Vibration     2          0.599              1.965              4.001
 Vibration     3          0.602              1.955              3.610
 Vibration     4          0.607              1.938              3.207
 Vibration     5          0.617              1.906              2.713
 Vibration     6          0.618              1.902              2.669
 Vibration     7          0.623              1.887              2.510
 Vibration     8          0.633              1.854              2.230
 Vibration     9          0.646              1.814              1.975
 Vibration    10          0.649              1.805              1.927
 Vibration    11          0.652              1.796              1.883
 Vibration    12          0.661              1.769              1.755
 Vibration    13          0.664              1.758              1.712
 Vibration    14          0.668              1.747              1.665
 Vibration    15          0.678              1.716              1.553
 Vibration    16          0.685              1.695              1.481
 Vibration    17          0.705              1.637              1.315
 Vibration    18          0.729              1.570              1.155
 Vibration    19          0.736              1.551              1.115
 Vibration    20          0.749              1.516              1.045
 Vibration    21          0.784              1.424              0.888
 Vibration    22          0.799              1.384              0.829
 Vibration    23          0.807              1.365              0.802
 Vibration    24          0.860              1.239              0.645
 Vibration    25          0.887              1.179              0.583
 Vibration    26          0.901              1.150              0.554
 Vibration    27          0.935              1.078              0.489
 Vibration    28          0.955              1.038              0.454

 Normal termination of Gaussian 09 at Sun Jan 15 13:43:56 2017.
