 Gaussian 09, Revision E.01,
 Gaussian 09:  ES64L-G09RevE.01 30-Nov-2015

 -----------------------------------------
 # opt=(MaxCycle=1000) freq B3LYP/6-31G(d)
 -----------------------------------------

 --------------------------------------------------
 ./chairs/2/glo_1w_beta_ircf_chair2_B3LYP_631Gd.out
 --------------------------------------------------
 Symbolic Z-matrix:
 Charge =  0 Multiplicity = 1

 SCF Done:  E(RB3LYP) =  -839.971261917     A.U. after   14 cycles
 SCF Done:  E(RB3LYP) =  -839.969643313     A.U. after   14 cycles
 SCF Done:  E(RB3LYP) =  -839.973348247     A.U. after   11 cycles
 SCF Done:  E(RB3LYP) =  -839.976051913     A.U. after   12 cycles
 SCF Done:  E(RB3LYP) =  -839.980868700     A.U. after   12 cycles
 SCF Done:  E(RB3LYP) =  -839.983563751     A.U. after   13 cycles
 SCF Done:  E(RB3LYP) =  -839.984380321     A.U. after   11 cycles
 SCF Done:  E(RB3LYP) =  -839.984255486     A.U. after   12 cycles
 SCF Done:  E(RB3LYP) =  -839.984671692     A.U. after    9 cycles
 SCF Done:  E(RB3LYP) =  -839.984856836     A.U. after   11 cycles
 SCF Done:  E(RB3LYP) =  -839.985117273     A.U. after   10 cycles
 SCF Done:  E(RB3LYP) =  -839.985128309     A.U. after    9 cycles
 SCF Done:  E(RB3LYP) =  -839.985134907     A.U. after    8 cycles
 SCF Done:  E(RB3LYP) =  -839.985137140     A.U. after    8 cycles
 SCF Done:  E(RB3LYP) =  -839.985139025     A.U. after    8 cycles
 SCF Done:  E(RB3LYP) =  -839.985140874     A.U. after    8 cycles
 SCF Done:  E(RB3LYP) =  -839.985142388     A.U. after    8 cycles
 SCF Done:  E(RB3LYP) =  -839.985142996     A.U. after    8 cycles
 SCF Done:  E(RB3LYP) =  -839.985142942     A.U. after    7 cycles
 Optimization completed.
    -- Stationary point found.
 Normal termination of Gaussian 09 at Sun Jan 15 13:36:54 2017.

 --------------------------------------------------------------------
 #N Geom=AllCheck Guess=TCheck SCRF=Check GenChk RB3LYP/6-31G(d) Freq
 --------------------------------------------------------------------

 Structure from the checkpoint file:  "/scratch/10462980.yak.local/Gau-24399.chk"
 --------------------------------------------------
 ./chairs/2/glo_1w_beta_ircf_chair2_B3LYP_631Gd.out
 --------------------------------------------------
 Charge =  0 Multiplicity = 1

                         Standard orientation:
 ---------------------------------------------------------------------
 Center     Atomic      Atomic             Coordinates (Angstroms)
 Number     Number       Type             X           Y           Z
 ---------------------------------------------------------------------
      1          6           0        1.936188    0.241471    0.809438
      2          8           0        0.942814    0.798230   -1.182808
      3          6           0        1.576781   -1.233527    0.684511
      4          6           0        0.054211   -1.476484    0.506512
      5          6           0       -0.560324   -1.059533   -0.857928
      6          6           0       -0.440662    0.411769   -1.284128
      7          1           0        1.845514   -1.688047    1.653733
      8          1           0       -1.631229   -1.278878   -0.795252
      9          1           0       -0.731714    0.427285   -2.343093
     10          1           0       -0.090685   -2.559482    0.560438
     11          8           0        2.271401   -1.867488   -0.377289
     12          8           0       -0.618357   -0.919160    1.643362
     13          8           0       -0.056994   -1.927906   -1.866646
     14          1           0       -0.171546   -0.078317    1.872361
     15          1           0        3.226187   -1.798425   -0.223488
     16          1           0        0.910176   -1.825244   -1.867958
     17          6           0       -1.378315    1.397967   -0.554965
     18          8           0       -2.730828    1.120331   -0.831077
     19          1           0       -1.157860    2.406430   -0.928617
     20          1           0       -1.172060    1.412313    0.524671
     21          1           0       -3.060810    0.498910   -0.143670
     22          8           0        1.413851    0.972982    1.651809
     23          1           0        1.423815    2.754053    0.823131
     24          1           0        2.822434    0.568947    0.237630
     25          1           0        1.012044    1.769492   -1.032573
     26          8           0        1.349612    3.265475   -0.007896
     27          1           0        2.177137    3.763421   -0.083653
     28          8           0       -3.363738   -0.590372    1.268009
     29          1           0       -2.441911   -0.789607    1.543682
     30          1           0       -3.748841   -0.089572    2.002304
 ---------------------------------------------------------------------

 SCF Done:  E(RB3LYP) =  -839.985142942     A.U. after    1 cycles

 The electronic state is 1-A.
 Alpha  occ. eigenvalues --  -19.18825 -19.18062 -19.17090 -19.16856 -19.15496
 Alpha  occ. eigenvalues --  -19.14442 -19.12762 -19.11029 -10.31332 -10.27447
 Alpha  occ. eigenvalues --  -10.25722 -10.23007 -10.22502 -10.21681  -1.08185
 Alpha  occ. eigenvalues --   -1.06060  -1.03981  -1.02953  -1.01947  -1.00366
 Alpha  occ. eigenvalues --   -0.99960  -0.98463  -0.78220  -0.74556  -0.69328
 Alpha  occ. eigenvalues --   -0.65046  -0.62052  -0.58006  -0.56427  -0.55035
 Alpha  occ. eigenvalues --   -0.54299  -0.52734  -0.49896  -0.49690  -0.48921
 Alpha  occ. eigenvalues --   -0.47804  -0.46758  -0.46155  -0.43035  -0.42605
 Alpha  occ. eigenvalues --   -0.41763  -0.40464  -0.40168  -0.39949  -0.38577
 Alpha  occ. eigenvalues --   -0.37326  -0.36114  -0.35582  -0.34013  -0.32440
 Alpha  occ. eigenvalues --   -0.32049  -0.31392  -0.29640  -0.28718  -0.28146
 Alpha  occ. eigenvalues --   -0.27701  -0.25242  -0.23776
 Alpha virt. eigenvalues --   -0.04545   0.03363   0.04688   0.06492   0.09613
 Alpha virt. eigenvalues --    0.10409   0.11322   0.12812   0.13165   0.15413
 Alpha virt. eigenvalues --    0.15949   0.16912   0.17393   0.17993   0.18976

 Mulliken charges:
               1
     1  C    0.260573
     2  O   -0.688208
     3  C    0.054360
     4  C    0.102713
     5  C    0.094950
     6  C    0.116453
     7  H    0.165718
     8  H    0.162137
     9  H    0.154456
    10  H    0.173152
    11  O   -0.626398
    12  O   -0.678988
    13  O   -0.645695
    14  H    0.435080
    15  H    0.406479
    16  H    0.419782
    17  C   -0.079208
    18  O   -0.655981
    19  H    0.148486
    20  H    0.098391
    21  H    0.436845
    22  O   -0.478516
    23  H    0.428839
    24  H    0.133440
    25  H    0.444141
    26  O   -0.800921
    27  H    0.401045
    28  O   -0.814746
    29  H    0.436594
    30  H    0.395027
 Sum of Mulliken charges =  -0.00000

 Dipole moment (field-independent basis, Debye):
    X=              6.4495    Y=              1.3751    Z=              3.8585  Tot=              7.6404
 Quadrupole moment (field-independent basis, Debye-Ang):
   XX=            -72.9569   YY=            -84.1867   ZZ=            -86.4849
   XY=              1.7316   XZ=             -6.7970   YZ=             -2.0419

  Exact polarizability: 104.375   0.209  95.404   0.055   0.736  89.592
 Approx polarizability: 138.655   0.953 128.793  -2.586   7.267 138.758

                      1                      2                      3
                      A                      A                      A
 Frequencies --     41.1636                62.8873                83.9249
 Red. masses --      5.5244                 6.3423                 4.5471
 Frc consts  --      0.0055                 0.0148                 0.0189
 IR Inten    --      3.3105                 1.5468                 8.6429

                      4                      5                      6
                      A                      A                      A
 Frequencies --     90.5230               128.1764               147.5407
 Red. masses --      4.3470                 4.2459                 3.6102
 Frc consts  --      0.0210                 0.0411                 0.0463
 IR Inten    --      4.3068                 8.7743                33.7386

                      7                      8                      9
                      A                      A                      A
 Frequencies --    153.1223               159.2930               173.1271
 Red. masses --      3.2228                 3.7921                 3.1616
 Frc consts  --      0.0445                 0.0567                 0.0558
 IR Inten    --     21.7069                19.6055                60.1425

                     10                     11                     12
                      A                      A                      A
 Frequencies --    190.1138               207.7255               228.3891
 Red. masses --      4.8517                 6.7168                 3.4970
 Frc consts  --      0.1033                 0.1708                 0.1075
 IR Inten    --      0.1194                12.5978                16.6651

                     13                     14                     15
                      A                      A                      A
 Frequencies --    233.4657               240.9326               243.5102
 Red. masses --      2.1849                 1.1692                 1.8489
 Frc consts  --      0.0702                 0.0400                 0.0646
 IR Inten    --     30.3130                97.6422                71.5887

                     16                     17                     18
                      A                      A                      A
 Frequencies --    260.8420               269.2887               305.0029
 Red. masses --      4.7225                 3.7401                 4.1517
 Frc consts  --      0.1893                 0.1598                 0.2276
 IR Inten    --      9.4679                20.0972                13.6592

                     19                     20                     21
                      A                      A                      A
 Frequencies --    331.4782               351.6709               369.0979
 Red. masses --      2.3031                 3.7970                 1.5140
 Frc consts  --      0.1491                 0.2767                 0.1215
 IR Inten    --      6.3078                50.2898                60.7869

                     22                     23                     24
                      A                      A                      A
 Frequencies --    377.5781               411.8864               439.6845
 Red. masses --      4.1562                 2.0266                 1.7176
 Frc consts  --      0.3491                 0.2026                 0.1956
 IR Inten    --      6.3988                55.1732                14.9541

                     25                     26                     27
                      A                      A                      A
 Frequencies --    474.1599               487.8568               503.5521
 Red. masses --      2.6624                 5.1881                 1.4490
 Frc consts  --      0.3527                 0.7275                 0.2165
 IR Inten    --     18.3091                 9.7186               134.9269

                     28                     29                     30
                      A                      A                      A
 Frequencies --    560.2581               563.6723               597.4297
 Red. masses --      4.6246                 4.1303                 1.6503
 Frc consts  --      0.8553                 0.7732                 0.3470
 IR Inten    --     14.8286                20.3940               147.5331

                     31                     32                     33
                      A                      A                      A
 Frequencies --    611.5055               623.8867               721.6276
 Red. masses --      1.8033                 1.1036                 1.0855
 Frc consts  --      0.3973                 0.2531                 0.3331
 IR Inten    --     94.2706               160.0084               225.2710

                     34                     35                     36
                      A                      A                      A
 Frequencies --    750.1038               782.8940               793.3519
 Red. masses --      2.8877                 1.0863                 2.2302
 Frc consts  --      0.9573                 0.3923                 0.8270
 IR Inten    --      5.5353               137.5886                15.5205

                     37                     38                     39
                      A                      A                      A
 Frequencies --    845.9629               899.0256               952.0952
 Red. masses --      1.5712                 1.6847                 1.6527
 Frc consts  --      0.6625                 0.8023                 0.8827
 IR Inten    --     66.4383                14.7846                15.9379

                     40                     41                     42
                      A                      A                      A
 Frequencies --   1013.7830              1039.5634              1066.2138
 Red. masses --      2.8623                 1.9745                 4.1154
 Frc consts  --      1.7332                 1.2572                 2.7564
 IR Inten    --     50.3267                 5.1923                20.7606

                     43                     44                     45
                      A                      A                      A
 Frequencies --   1074.2185              1100.8684              1103.3148
 Red. masses --      6.2563                 2.9660                 3.4340
 Frc consts  --      4.2536                 2.1179                 2.4629
 IR Inten    --    176.6242                39.3003                41.8820

                     46                     47                     48
                      A                      A                      A
 Frequencies --   1117.7287              1128.6084              1157.3910
 Red. masses --      5.0812                 3.7604                 2.5244
 Frc consts  --      3.7401                 2.8221                 1.9924
 IR Inten    --     74.7203                45.5702                41.2852

                     49                     50                     51
                      A                      A                      A
 Frequencies --   1224.2916              1246.3966              1278.3111
 Red. masses --      1.1004                 1.1115                 1.1955
 Frc consts  --      0.9718                 1.0173                 1.1510
 IR Inten    --     17.6000                16.6688                17.6850

                     52                     53                     54
                      A                      A                      A
 Frequencies --   1307.0205              1326.2367              1341.6812
 Red. masses --      1.2390                 1.2906                 1.1315
 Frc consts  --      1.2470                 1.3374                 1.2001
 IR Inten    --     38.1062                 8.3286                 9.7845

                     55                     56                     57
                      A                      A                      A
 Frequencies --   1361.5467              1379.2666              1396.4731
 Red. masses --      1.3372                 1.2978                 1.3268
 Frc consts  --      1.4605                 1.4546                 1.5245
 IR Inten    --     44.3117                30.8067                 3.4392

                     58                     59                     60
                      A                      A                      A
 Frequencies --   1412.2159              1425.0489              1431.3643
 Red. masses --      1.3264                 1.3249                 1.3718
 Frc consts  --      1.5586                 1.5853                 1.6559
 IR Inten    --     16.1939                21.3394                 0.4097

                     61                     62                     63
                      A                      A                      A
 Frequencies --   1464.7686              1484.2338              1493.8103
 Red. masses --      1.2959                 1.3191                 1.2081
 Frc consts  --      1.6381                 1.7121                 1.5884
 IR Inten    --     50.5239                39.0366                85.2312

                     64                     65                     66
                      A                      A                      A
 Frequencies --   1504.8776              1535.3952              1703.2821
 Red. masses --      1.1485                 1.0903                 1.3072
 Frc consts  --      1.5324                 1.5144                 2.2344
 IR Inten    --     46.4997                 1.0033               125.7004

                     67                     68                     69
                      A                      A                      A
 Frequencies --   1730.0505              1735.3171              2983.8898
 Red. masses --      3.4733                 1.0800                 1.0818
 Frc consts  --      6.1250                 1.9162                 5.6748
 IR Inten    --     88.9014                44.3953                30.9305

                     70                     71                     72
                      A                      A                      A
 Frequencies --   3000.3188              3026.1253              3044.1405
 Red. masses --      1.0889                 1.0610                 1.0827
 Frc consts  --      5.7751                 5.7247                 5.9112
 IR Inten    --     71.3938                30.1107                38.1252

                     73                     74                     75
                      A                      A                      A
 Frequencies --   3073.1888              3092.4092              3100.6837
 Red. masses --      1.1046                 1.0854                 1.0870
 Frc consts  --      6.1467                 6.1157                 6.1575
 IR Inten    --     56.6241                11.9111                23.7178

                     76                     77                     78
                      A                      A                      A
 Frequencies --   3474.6733              3480.7014              3550.9501
 Red. masses --      1.0685                 1.0659                 1.0613
 Frc consts  --      7.6005                 7.6082                 7.8846
 IR Inten    --    381.5685               219.7441               731.7713

                     79                     80                     81
                      A                      A                      A
 Frequencies --   3579.7960              3612.9145              3713.1180
 Red. masses --      1.0650                 1.0548                 1.0657
 Frc consts  --      8.0412                 8.1124                 8.6567
 IR Inten    --    133.9265               203.3585                83.6082

                     82                     83                     84
                      A                      A                      A
 Frequencies --   3748.9949              3804.7720              3810.9693
 Red. masses --      1.0665                 1.0706                 1.0738
 Frc consts  --      8.8318                 9.1313                 9.1885
 IR Inten    --     16.1828                76.4383                71.4387

 - Thermochemistry -
 -------------------
 Temperature   298.150 Kelvin.  Pressure   1.00000 Atm.
 Atom     1 has atomic number  6 and mass  12.00000

 Molecular mass:   216.08452 amu.
 Principal axes and moments of inertia in atomic units:
                           1         2         3
     Eigenvalues --  2731.218013260.084504002.49292
           X            0.99961   0.02105  -0.01829
           Y           -0.02134   0.99965  -0.01560
           Z            0.01795   0.01599   0.99971
 This molecule is an asymmetric top.
 Rotational symmetry number  1.
 Warning -- assumption of classical behavior for rotation
           may cause significant error
 Rotational temperatures (Kelvin)      0.03171     0.02657     0.02164
 Rotational constants (GHZ):           0.66078     0.55359     0.45090
 Zero-point vibrational energy     648069.3 (Joules/Mol)
                                  154.89229 (Kcal/Mol)
 Warning -- explicit consideration of  31 degrees of freedom as
           vibrations may cause significant error
 Vibrational temperatures:     59.23    90.48   120.75   130.24   184.42
          (Kelvin)            212.28   220.31   229.19   249.09   273.53
                              298.87   328.60   335.90   346.65   350.36
                              375.29   387.45   438.83   476.92   505.98
                              531.05   543.25   592.61   632.61   682.21
                              701.92   724.50   806.09   811.00   859.57
                              879.82   897.63  1038.26  1079.23  1126.41
                             1141.46  1217.15  1293.50  1369.85  1458.61
                             1495.70  1534.04  1545.56  1583.90  1587.42
                             1608.16  1623.81  1665.23  1761.48  1793.28
                             1839.20  1880.51  1908.16  1930.38  1958.96
                             1984.45  2009.21  2031.86  2050.32  2059.41
                             2107.47  2135.48  2149.26  2165.18  2209.09
                             2450.64  2489.15  2496.73  4293.15  4316.78
                             4353.91  4379.83  4421.63  4449.28  4461.19
                             4999.27  5007.95  5109.02  5150.52  5198.17
                             5342.34  5393.96  5474.21  5483.13

 Zero-point correction=                           0.246837 (Hartree/Particle)
 Thermal correction to Energy=                    0.264963
 Thermal correction to Enthalpy=                  0.265908
 Thermal correction to Gibbs Free Energy=         0.202462
 Sum of electronic and zero-point Energies=           -839.738306
 Sum of electronic and thermal Energies=              -839.720180
 Sum of electronic and thermal Enthalpies=            -839.719235
 Sum of electronic and thermal Free Energies=         -839.782680

                     E (Thermal)             CV                S
                      KCal/Mol        Cal/Mol-Kelvin    Cal/Mol-Kelvin
 Total                  166.267             66.486            133.532
 Electronic               0.000              0.000              0.000
 Translational            0.889              2.981             42.015
 Rotational               0.889              2.981             31.944
 Vibrational            164.490             60.525             59.573
 Vibration     1          0.594              1.981              5.202
 Vibration     2          0.597              1.972              4.364
 Vibration     3          0.601              1.960              3.797
 Vibration     4          0.602              1.956              3.649
 Vibration     5          0.611              1.925              2.973
 Vibration     6          0.617              1.905              2.704
 Vibration     7          0.619              1.899              2.633
 Vibration     8          0.621              1.892              2.558
 Vibration     9          0.627              1.876              2.401
 Vibration    10          0.633              1.854              2.227
 Vibration    11          0.641              1.829              2.064
 Vibration    12          0.651              1.798              1.892
 Vibration    13          0.654              1.790              1.852
 Vibration    14          0.658              1.778              1.796
 Vibration    15          0.659              1.773              1.777
 Vibration    16          0.669              1.744              1.656
 Vibration    17          0.674              1.730              1.601
 Vibration    18          0.696              1.664              1.389
 Vibration    19          0.714              1.613              1.253
 Vibration    20          0.728              1.572              1.159
 Vibration    21          0.741              1.536              1.084
 Vibration    22          0.748              1.518              1.049
 Vibration    23          0.776              1.444              0.920
 Vibration    24          0.800              1.384              0.828
 Vibration    25          0.831              1.307              0.726
 Vibration    26          0.844              1.277              0.689
 Vibration    27          0.859              1.242              0.649
 Vibration    28          0.916              1.117              0.523
 Vibration    29          0.919              1.110              0.517
 Vibration    30          0.955              1.037              0.454
 Vibration    31          0.971              1.007              0.430

 Normal termination of Gaussian 09 at Sun Jan 15 13:56:33 2017.
