 Gaussian 09, Revision E.01,
 Gaussian 09:  ES64L-G09RevE.01 30-Nov-2015

 -----------------------------------------
 # opt=(MaxCycle=1000) freq B3LYP/6-31G(d)
 -----------------------------------------

 ---------------------------------------------------
 ./chairs/2/glo_1w_alpha_ircr_chair2_B3LYP_631Gd.out
 ---------------------------------------------------
 Symbolic Z-matrix:
 Charge =  0 Multiplicity = 1

 SCF Done:  E(RB3LYP) =  -839.969280395     A.U. after   14 cycles
 SCF Done:  E(RB3LYP) =  -839.971229530     A.U. after   13 cycles
 SCF Done:  E(RB3LYP) =  -839.973647570     A.U. after   13 cycles
 SCF Done:  E(RB3LYP) =  -839.979169914     A.U. after   13 cycles
 SCF Done:  E(RB3LYP) =  -839.981681731     A.U. after   12 cycles
 SCF Done:  E(RB3LYP) =  -839.983252059     A.U. after   12 cycles
 SCF Done:  E(RB3LYP) =  -839.983833450     A.U. after   12 cycles
 SCF Done:  E(RB3LYP) =  -839.983991243     A.U. after   11 cycles
 SCF Done:  E(RB3LYP) =  -839.984086988     A.U. after   11 cycles
 SCF Done:  E(RB3LYP) =  -839.984135425     A.U. after   10 cycles
 SCF Done:  E(RB3LYP) =  -839.984182841     A.U. after    8 cycles
 SCF Done:  E(RB3LYP) =  -839.984186847     A.U. after    8 cycles
 SCF Done:  E(RB3LYP) =  -839.984189131     A.U. after    8 cycles
 SCF Done:  E(RB3LYP) =  -839.984190629     A.U. after    8 cycles
 SCF Done:  E(RB3LYP) =  -839.984191342     A.U. after    8 cycles
 SCF Done:  E(RB3LYP) =  -839.984191740     A.U. after    7 cycles
 SCF Done:  E(RB3LYP) =  -839.984192064     A.U. after    7 cycles
 SCF Done:  E(RB3LYP) =  -839.984192330     A.U. after    7 cycles
 SCF Done:  E(RB3LYP) =  -839.984192573     A.U. after    7 cycles
 Optimization completed.
    -- Stationary point found.
 Normal termination of Gaussian 09 at Sun Jan 15 13:27:59 2017.

 --------------------------------------------------------------------
 #N Geom=AllCheck Guess=TCheck SCRF=Check GenChk RB3LYP/6-31G(d) Freq
 --------------------------------------------------------------------

 Structure from the checkpoint file:  "/scratch/10462979.yak.local/Gau-10684.chk"
 ---------------------------------------------------
 ./chairs/2/glo_1w_alpha_ircr_chair2_B3LYP_631Gd.out
 ---------------------------------------------------
 Charge =  0 Multiplicity = 1

                         Standard orientation:
 ---------------------------------------------------------------------
 Center     Atomic      Atomic             Coordinates (Angstroms)
 Number     Number       Type             X           Y           Z
 ---------------------------------------------------------------------
      1          6           0       -1.713489   -0.262706   -1.085438
      2          8           0       -0.939124    0.873779    0.784590
      3          6           0       -1.124726   -1.556720   -0.544445
      4          6           0        0.384289   -1.528007   -0.195039
      5          6           0        0.829396   -0.677237    1.020683
      6          6           0        0.466617    0.816227    1.020962
      7          1           0       -1.222791   -2.272137   -1.390024
      8          1           0        1.920628   -0.750581    1.083229
      9          1           0        0.689854    1.171586    2.037014
     10          1           0        0.661646   -2.553467    0.078509
     11          8           0       -1.890953   -2.011215    0.549962
     12          8           0        1.106377   -1.135776   -1.384630
     13          8           0        0.327772   -1.318591    2.185122
     14          1           0        1.024568   -1.855200   -2.031861
     15          1           0       -2.729616   -1.509558    0.492780
     16          1           0       -0.634584   -1.407088    2.054631
     17          6           0        1.257657    1.712858    0.050121
     18          8           0        2.606719    1.845507    0.439703
     19          1           0        0.804493    2.713561    0.083128
     20          1           0        1.156602    1.349341   -0.982862
     21          1           0        3.118068    1.118645    0.022023
     22          1           0       -1.075802    0.339398   -1.750574
     23          8           0       -2.906301   -0.022232   -0.935263
     24          1           0       -2.941810    1.939196   -0.718748
     25          1           0       -1.258552    1.773365    0.542676
     26          8           0       -2.534740    2.760789   -0.373628
     27          1           0       -3.193589    3.119442    0.240246
     28          8           0        3.754849   -0.221124   -1.048172
     29          1           0        3.997834    0.259744   -1.853949
     30          1           0        2.887807   -0.631833   -1.248761
 ---------------------------------------------------------------------

 SCF Done:  E(RB3LYP) =  -839.984192573     A.U. after    1 cycles

 The electronic state is 1-A.
 Alpha  occ. eigenvalues --  -19.20075 -19.17044 -19.16977 -19.16126 -19.15620
 Alpha  occ. eigenvalues --  -19.15093 -19.13169 -19.11581 -10.30209 -10.26809
 Alpha  occ. eigenvalues --  -10.26667 -10.23951 -10.22724 -10.22019  -1.07835
 Alpha  occ. eigenvalues --   -1.06565  -1.03768  -1.02899  -1.01617  -1.01528
 Alpha  occ. eigenvalues --   -1.00264  -0.98983  -0.78650  -0.74675  -0.69754
 Alpha  occ. eigenvalues --   -0.64844  -0.61466  -0.58355  -0.55256  -0.54449
 Alpha  occ. eigenvalues --   -0.54023  -0.53000  -0.52100  -0.50157  -0.49390
 Alpha  occ. eigenvalues --   -0.48991  -0.46702  -0.45471  -0.44060  -0.42206
 Alpha  occ. eigenvalues --   -0.41710  -0.40457  -0.40283  -0.39646  -0.38587
 Alpha  occ. eigenvalues --   -0.37793  -0.36253  -0.35058  -0.33869  -0.33236
 Alpha  occ. eigenvalues --   -0.32542  -0.31625  -0.29656  -0.28840  -0.28207
 Alpha  occ. eigenvalues --   -0.27697  -0.26070  -0.24136
 Alpha virt. eigenvalues --   -0.03459   0.01939   0.05571   0.06945   0.07896
 Alpha virt. eigenvalues --    0.10844   0.11695   0.12038   0.12853   0.14589
 Alpha virt. eigenvalues --    0.15398   0.16166   0.17051   0.17956   0.18209

 Mulliken charges:
               1
     1  C    0.279550
     2  O   -0.687062
     3  C    0.091120
     4  C    0.066806
     5  C    0.104533
     6  C    0.127892
     7  H    0.130159
     8  H    0.157208
     9  H    0.149328
    10  H    0.165761
    11  O   -0.640169
    12  O   -0.645223
    13  O   -0.644779
    14  H    0.409535
    15  H    0.418364
    16  H    0.419458
    17  C   -0.080393
    18  O   -0.656935
    19  H    0.138280
    20  H    0.118332
    21  H    0.429576
    22  H    0.149071
    23  O   -0.479147
    24  H    0.427210
    25  H    0.433160
    26  O   -0.801990
    27  H    0.401782
    28  O   -0.807013
    29  H    0.397124
    30  H    0.428460
 Sum of Mulliken charges =  -0.00000

 Dipole moment (field-independent basis, Debye):
    X=             -2.3130    Y=             -1.2294    Z=             -4.6861  Tot=              5.3685
 Quadrupole moment (field-independent basis, Debye-Ang):
   XX=            -85.9532   YY=            -84.1649   ZZ=            -80.5876
   XY=             -8.3494   XZ=            -12.9966   YZ=              9.2116

  Exact polarizability: 108.601  -0.283  95.503  -0.250   3.230  87.530
 Approx polarizability: 149.196  -0.764 126.970  -0.420   2.853 129.105

                      1                      2                      3
                      A                      A                      A
 Frequencies --     30.2664                48.6218                61.6099
 Red. masses --      5.7669                 5.3733                 6.7719
 Frc consts  --      0.0031                 0.0075                 0.0151
 IR Inten    --      2.6067                 5.4158                 0.5175

                      4                      5                      6
                      A                      A                      A
 Frequencies --     93.1342               116.1364               144.5036
 Red. masses --      6.0510                 5.4055                 5.9486
 Frc consts  --      0.0309                 0.0430                 0.0732
 IR Inten    --      2.1398                 2.2617                11.6189

                      7                      8                      9
                      A                      A                      A
 Frequencies --    154.0245               167.4170               188.2618
 Red. masses --      5.6990                 6.2853                 7.2256
 Frc consts  --      0.0797                 0.1038                 0.1509
 IR Inten    --      2.5134                 1.1659                25.3638

                     10                     11                     12
                      A                      A                      A
 Frequencies --    197.5382               216.1950               224.7330
 Red. masses --      6.2188                 4.3866                 3.5353
 Frc consts  --      0.1430                 0.1208                 0.1052
 IR Inten    --      5.7854                 8.5290                 4.6951

                     13                     14                     15
                      A                      A                      A
 Frequencies --    234.8362               251.0914               257.9125
 Red. masses --      3.1450                 1.5773                 1.3490
 Frc consts  --      0.1022                 0.0586                 0.0529
 IR Inten    --     48.7565                25.7730               102.5017

                     16                     17                     18
                      A                      A                      A
 Frequencies --    267.4964               274.4592               307.0253
 Red. masses --      2.0792                 3.1120                 4.1955
 Frc consts  --      0.0877                 0.1381                 0.2330
 IR Inten    --     68.4915                21.7493                 2.2744

                     19                     20                     21
                      A                      A                      A
 Frequencies --    324.1854               331.3238               367.2057
 Red. masses --      1.3265                 2.8927                 1.5908
 Frc consts  --      0.0821                 0.1871                 0.1264
 IR Inten    --     83.7526                77.5497                10.5079

                     22                     23                     24
                      A                      A                      A
 Frequencies --    372.6899               386.0037               399.1683
 Red. masses --      1.3121                 2.0029                 3.1505
 Frc consts  --      0.1074                 0.1758                 0.2958
 IR Inten    --     30.4563                27.7689                32.3753

                     25                     26                     27
                      A                      A                      A
 Frequencies --    452.1280               471.0291               497.6979
 Red. masses --      1.2887                 4.6386                 3.9623
 Frc consts  --      0.1552                 0.6064                 0.5783
 IR Inten    --      8.4256                12.5537                 4.4065

                     28                     29                     30
                      A                      A                      A
 Frequencies --    544.6121               584.0172               599.0499
 Red. masses --      3.8920                 1.2165                 4.0678
 Frc consts  --      0.6801                 0.2445                 0.8601
 IR Inten    --     13.3961               237.8650                10.0463

                     31                     32                     33
                      A                      A                      A
 Frequencies --    656.1830               672.5582               714.2910
 Red. masses --      1.1726                 2.9752                 1.1349
 Frc consts  --      0.2975                 0.7929                 0.3412
 IR Inten    --    303.2356                31.5288               212.3025

                     34                     35                     36
                      A                      A                      A
 Frequencies --    757.2869               780.8755               804.0555
 Red. masses --      2.2150                 1.0615                 1.5466
 Frc consts  --      0.7484                 0.3814                 0.5891
 IR Inten    --      1.8929               117.5450                59.6226

                     37                     38                     39
                      A                      A                      A
 Frequencies --    833.0439               867.4824               932.2730
 Red. masses --      2.8837                 2.0037                 1.8925
 Frc consts  --      1.1791                 0.8884                 0.9691
 IR Inten    --     33.8822                27.9734                 5.2935

                     40                     41                     42
                      A                      A                      A
 Frequencies --   1015.8949              1038.6916              1052.7249
 Red. masses --      2.0502                 1.9487                 5.0557
 Frc consts  --      1.2467                 1.2387                 3.3011
 IR Inten    --     42.4520                 3.0798               105.5272

                     43                     44                     45
                      A                      A                      A
 Frequencies --   1073.5795              1103.1252              1105.4571
 Red. masses --      4.8073                 2.7006                 4.5416
 Frc consts  --      3.2645                 1.9363                 3.2700
 IR Inten    --     61.0417                96.3748                76.5152

                     46                     47                     48
                      A                      A                      A
 Frequencies --   1113.5312              1147.2240              1163.3980
 Red. masses --      3.3346                 2.4109                 3.9590
 Frc consts  --      2.4361                 1.8695                 3.1571
 IR Inten    --     60.2898                52.7589                38.2319

                     49                     50                     51
                      A                      A                      A
 Frequencies --   1231.0206              1259.4004              1264.0221
 Red. masses --      1.0813                 1.0954                 1.2518
 Frc consts  --      0.9655                 1.0236                 1.1785
 IR Inten    --     10.1440                47.0334                21.3117

                     52                     53                     54
                      A                      A                      A
 Frequencies --   1304.0916              1315.5337              1338.8122
 Red. masses --      1.1365                 1.2808                 1.1882
 Frc consts  --      1.1388                 1.3060                 1.2548
 IR Inten    --     54.7080                 8.9934                 3.4832

                     55                     56                     57
                      A                      A                      A
 Frequencies --   1344.8103              1376.3958              1394.5909
 Red. masses --      1.1513                 1.3251                 1.2401
 Frc consts  --      1.2268                 1.4790                 1.4210
 IR Inten    --      3.6068                80.4682                15.5605

                     58                     59                     60
                      A                      A                      A
 Frequencies --   1416.4940              1430.6057              1432.6888
 Red. masses --      1.4220                 1.5424                 1.3669
 Frc consts  --      1.6810                 1.8599                 1.6530
 IR Inten    --     12.4788                17.7061                16.0772

                     61                     62                     63
                      A                      A                      A
 Frequencies --   1452.1880              1476.7368              1488.4085
 Red. masses --      1.4272                 1.3828                 1.3063
 Frc consts  --      1.7733                 1.7767                 1.7051
 IR Inten    --      9.2345                71.0315                37.3481

                     64                     65                     66
                      A                      A                      A
 Frequencies --   1500.2240              1534.7483              1723.9123
 Red. masses --      1.1513                 1.0897                 1.0749
 Frc consts  --      1.5267                 1.5123                 1.8821
 IR Inten    --     59.7688                 2.0708                48.4707

                     67                     68                     69
                      A                      A                      A
 Frequencies --   1729.1781              1752.8741              2887.2760
 Red. masses --      1.1664                 5.3894                 1.0795
 Frc consts  --      2.0548                 9.7565                 5.3020
 IR Inten    --    137.7147               132.5777                67.9769

                     70                     71                     72
                      A                      A                      A
 Frequencies --   3018.7270              3034.1056              3052.4847
 Red. masses --      1.0583                 1.0840                 1.0897
 Frc consts  --      5.6821                 5.8797                 5.9820
 IR Inten    --     33.0248                34.4342                41.4791

                     73                     74                     75
                      A                      A                      A
 Frequencies --   3057.8594              3063.1137              3089.2350
 Red. masses --      1.0864                 1.1058                 1.0859
 Frc consts  --      5.9854                 6.1128                 6.1060
 IR Inten    --     35.7963                55.2553                23.0999

                     76                     77                     78
                      A                      A                      A
 Frequencies --   3481.0594              3513.3655              3590.0288
 Red. masses --      1.0688                 1.0659                 1.0570
 Frc consts  --      7.6309                 7.7523                 8.0265
 IR Inten    --    369.0968               270.2190               529.9263

                     79                     80                     81
                      A                      A                      A
 Frequencies --   3599.3216              3609.0398              3670.6174
 Red. masses --      1.0567                 1.0640                 1.0656
 Frc consts  --      8.0660                 8.1655                 8.4589
 IR Inten    --    303.4294                41.3426                84.8166

                     82                     83                     84
                      A                      A                      A
 Frequencies --   3728.3378              3799.5656              3802.5340
 Red. masses --      1.0663                 1.0721                 1.0724
 Frc consts  --      8.7326                 9.1188                 9.1362
 IR Inten    --     23.1764                93.0131                74.0567

 - Thermochemistry -
 -------------------
 Temperature   298.150 Kelvin.  Pressure   1.00000 Atm.
 Atom     1 has atomic number  6 and mass  12.00000

 Molecular mass:   216.08452 amu.
 Principal axes and moments of inertia in atomic units:
                           1         2         3
     Eigenvalues --  2449.318763741.310664565.67553
           X            0.99964  -0.02215  -0.01533
           Y            0.02239   0.99962   0.01587
           Z            0.01497  -0.01621   0.99976
 This molecule is an asymmetric top.
 Rotational symmetry number  1.
 Warning -- assumption of classical behavior for rotation
           may cause significant error
 Rotational temperatures (Kelvin)      0.03536     0.02315     0.01897
 Rotational constants (GHZ):           0.73683     0.48238     0.39528
 Zero-point vibrational energy     646937.2 (Joules/Mol)
                                  154.62171 (Kcal/Mol)
 Warning -- explicit consideration of  30 degrees of freedom as
           vibrations may cause significant error
 Vibrational temperatures:     43.55    69.96    88.64   134.00   167.09
          (Kelvin)            207.91   221.61   240.88   270.87   284.21
                              311.06   323.34   337.88   361.26   371.08
                              384.87   394.89   441.74   466.43   476.70
                              528.33   536.22   555.37   574.31   650.51
                              677.70   716.08   783.57   840.27   861.90
                              944.10   967.66  1027.70  1089.57  1123.50
                             1156.86  1198.56  1248.11  1341.33  1461.64
                             1494.44  1514.63  1544.64  1587.15  1590.50
                             1602.12  1650.60  1673.87  1771.16  1811.99
                             1818.64  1876.29  1892.76  1926.25  1934.88
                             1980.32  2006.50  2038.02  2058.32  2061.32
                             2089.37  2124.69  2141.49  2158.48  2208.16
                             2480.32  2487.90  2521.99  4154.14  4343.27
                             4365.40  4391.84  4399.57  4407.13  4444.71
                             5008.46  5054.94  5165.24  5178.61  5192.60
                             5281.19  5364.24  5466.72  5470.99

 Zero-point correction=                           0.246405 (Hartree/Particle)
 Thermal correction to Energy=                    0.264639
 Thermal correction to Enthalpy=                  0.265583
 Thermal correction to Gibbs Free Energy=         0.201276
 Sum of electronic and zero-point Energies=           -839.737787
 Sum of electronic and thermal Energies=              -839.719554
 Sum of electronic and thermal Enthalpies=            -839.718610
 Sum of electronic and thermal Free Energies=         -839.782916

                     E (Thermal)             CV                S
                      KCal/Mol        Cal/Mol-Kelvin    Cal/Mol-Kelvin
 Total                  166.063             66.596            135.344
 Electronic               0.000              0.000              0.000
 Translational            0.889              2.981             42.015
 Rotational               0.889              2.981             32.104
 Vibrational            164.286             60.635             61.226
 Vibration     1          0.594              1.984              5.812
 Vibration     2          0.595              1.978              4.873
 Vibration     3          0.597              1.973              4.405
 Vibration     4          0.602              1.954              3.593
 Vibration     5          0.608              1.936              3.164
 Vibration     6          0.616              1.909              2.743
 Vibration     7          0.620              1.898              2.622
 Vibration     8          0.624              1.883              2.464
 Vibration     9          0.633              1.856              2.245
 Vibration    10          0.637              1.843              2.156
 Vibration    11          0.645              1.816              1.991
 Vibration    12          0.649              1.803              1.921
 Vibration    13          0.655              1.788              1.842
 Vibration    14          0.663              1.761              1.723
 Vibration    15          0.667              1.749              1.676
 Vibration    16          0.673              1.733              1.612
 Vibration    17          0.677              1.721              1.568
 Vibration    18          0.697              1.660              1.378
 Vibration    19          0.709              1.627              1.289
 Vibration    20          0.714              1.613              1.254
 Vibration    21          0.740              1.540              1.091
 Vibration    22          0.744              1.528              1.069
 Vibration    23          0.755              1.500              1.016
 Vibration    24          0.765              1.472              0.966
 Vibration    25          0.811              1.356              0.789
 Vibration    26          0.828              1.314              0.735
 Vibration    27          0.853              1.255              0.664
 Vibration    28          0.900              1.151              0.555
 Vibration    29          0.941              1.066              0.478
 Vibration    30          0.957              1.034              0.451

 Normal termination of Gaussian 09 at Sun Jan 15 13:45:10 2017.
