 Gaussian 09, Revision E.01,
 Gaussian 09:  ES64L-G09RevE.01 30-Nov-2015

 -----------------------------------------
 # opt=(MaxCycle=1000) freq B3LYP/6-31G(d)
 -----------------------------------------

 ---------------------------------------------------
 ./chairs/2/glo_2w_alpha_ircf_chair2_B3LYP_631Gd.out
 ---------------------------------------------------
 Symbolic Z-matrix:
 Charge =  0 Multiplicity = 1

 SCF Done:  E(RB3LYP) =  -839.990500226     A.U. after   14 cycles
 SCF Done:  E(RB3LYP) =  -839.997416219     A.U. after   12 cycles
 SCF Done:  E(RB3LYP) =  -840.001527256     A.U. after   11 cycles
 SCF Done:  E(RB3LYP) =  -840.003977144     A.U. after   12 cycles
 SCF Done:  E(RB3LYP) =  -840.004882239     A.U. after   12 cycles
 SCF Done:  E(RB3LYP) =  -840.005055614     A.U. after   12 cycles
 SCF Done:  E(RB3LYP) =  -840.005440071     A.U. after   11 cycles
 SCF Done:  E(RB3LYP) =  -840.005509436     A.U. after   10 cycles
 SCF Done:  E(RB3LYP) =  -840.005501333     A.U. after   11 cycles
 SCF Done:  E(RB3LYP) =  -840.005541111     A.U. after   10 cycles
 SCF Done:  E(RB3LYP) =  -840.005580284     A.U. after   10 cycles
 SCF Done:  E(RB3LYP) =  -840.005588473     A.U. after   10 cycles
 SCF Done:  E(RB3LYP) =  -840.005592553     A.U. after    7 cycles
 SCF Done:  E(RB3LYP) =  -840.005594213     A.U. after    9 cycles
 SCF Done:  E(RB3LYP) =  -840.005595226     A.U. after    9 cycles
 SCF Done:  E(RB3LYP) =  -840.005595606     A.U. after    9 cycles
 SCF Done:  E(RB3LYP) =  -840.005595717     A.U. after    7 cycles
 SCF Done:  E(RB3LYP) =  -840.005595619     A.U. after    7 cycles
 SCF Done:  E(RB3LYP) =  -840.005595531     A.U. after    6 cycles
 Optimization completed.
    -- Stationary point found.
 Normal termination of Gaussian 09 at Sun Jan 15 13:17:28 2017.

 --------------------------------------------------------------------
 #N Geom=AllCheck Guess=TCheck SCRF=Check GenChk RB3LYP/6-31G(d) Freq
 --------------------------------------------------------------------

 Structure from the checkpoint file:  "/scratch/10462976.yak.local/Gau-24716.chk"
 ---------------------------------------------------
 ./chairs/2/glo_2w_alpha_ircf_chair2_B3LYP_631Gd.out
 ---------------------------------------------------
 Charge =  0 Multiplicity = 1

                         Standard orientation:
 ---------------------------------------------------------------------
 Center     Atomic      Atomic             Coordinates (Angstroms)
 Number     Number       Type             X           Y           Z
 ---------------------------------------------------------------------
      1          6           0       -0.665066   -0.648731   -0.595665
      2          8           0       -0.617850    0.255102    0.533289
      3          6           0        0.529142   -1.615019   -0.574811
      4          6           0        1.872032   -0.887796   -0.396479
      5          6           0        1.809863    0.078476    0.796751
      6          6           0        0.600481    1.025189    0.694955
      7          1           0        0.526274   -2.159579   -1.534528
      8          1           0        2.716116    0.689122    0.812631
      9          1           0        0.495823    1.475447    1.686008
     10          1           0        2.657387   -1.629201   -0.201017
     11          8           0        0.376841   -2.530064    0.506798
     12          8           0        2.178463   -0.114697   -1.565127
     13          8           0        1.785375   -0.649276    2.011997
     14          1           0        2.358549   -0.718174   -2.302265
     15          1           0       -0.582507   -2.707302    0.550240
     16          1           0        1.128850   -1.362371    1.893785
     17          6           0        0.696208    2.147789   -0.375054
     18          8           0        2.021604    2.590930   -0.608360
     19          1           0        0.131951    3.017187   -0.023156
     20          1           0        0.224825    1.815272   -1.308197
     21          1           0        2.440845    1.887322   -1.134737
     22          1           0       -0.667566   -0.065674   -1.525521
     23          8           0       -1.801125   -1.426231   -0.467562
     24          1           0       -2.604186   -0.899602   -0.737838
     25          1           0       -2.151034    1.048360    1.044373
     26          8           0       -3.872409    0.176169   -1.048661
     27          1           0       -4.740482   -0.245024   -0.960942
     28          8           0       -3.057026    1.396815    1.219490
     29          1           0       -3.339208    0.931444    2.021469
     30          1           0       -3.762589    0.733333   -0.233393
 ---------------------------------------------------------------------

 SCF Done:  E(RB3LYP) =  -840.005595531     A.U. after    1 cycles

 The electronic state is 1-A.
 Alpha  occ. eigenvalues --  -19.18122 -19.17087 -19.16517 -19.15685 -19.15608
 Alpha  occ. eigenvalues --  -19.15366 -19.13332 -19.13032 -10.29480 -10.25339
 Alpha  occ. eigenvalues --  -10.25153 -10.23743 -10.23523 -10.22662  -1.07995
 Alpha  occ. eigenvalues --   -1.05086  -1.03358  -1.02131  -1.01729  -1.00708
 Alpha  occ. eigenvalues --   -1.00619  -0.99545  -0.78098  -0.76103  -0.69317
 Alpha  occ. eigenvalues --   -0.65303  -0.63420  -0.57215  -0.55389  -0.54627
 Alpha  occ. eigenvalues --   -0.53422  -0.52781  -0.52494  -0.51201  -0.50659
 Alpha  occ. eigenvalues --   -0.48114  -0.46095  -0.45277  -0.43759  -0.42703
 Alpha  occ. eigenvalues --   -0.41537  -0.40951  -0.40257  -0.38808  -0.38137
 Alpha  occ. eigenvalues --   -0.36734  -0.36356  -0.34269  -0.33220  -0.32312
 Alpha  occ. eigenvalues --   -0.31826  -0.31345  -0.30784  -0.29916  -0.28528
 Alpha  occ. eigenvalues --   -0.28144  -0.26397  -0.24281
 Alpha virt. eigenvalues --    0.03608   0.04825   0.07973   0.08264   0.10092
 Alpha virt. eigenvalues --    0.11283   0.11756   0.12750   0.13719   0.14783
 Alpha virt. eigenvalues --    0.15286   0.16326   0.18071   0.18831   0.19557

 Mulliken charges:
               1
     1  C    0.343440
     2  O   -0.550807
     3  C    0.092627
     4  C    0.077692
     5  C    0.107480
     6  C    0.093482
     7  H    0.123090
     8  H    0.159984
     9  H    0.159344
    10  H    0.155852
    11  O   -0.652266
    12  O   -0.649375
    13  O   -0.649792
    14  H    0.407976
    15  H    0.426181
    16  H    0.416712
    17  C   -0.054357
    18  O   -0.632502
    19  H    0.153097
    20  H    0.135990
    21  H    0.416816
    22  H    0.132981
    23  O   -0.689590
    24  H    0.442268
    25  H    0.439246
    26  O   -0.816564
    27  H    0.397477
    28  O   -0.815724
    29  H    0.396595
    30  H    0.432646
 Sum of Mulliken charges =  -0.00000

 Dipole moment (field-independent basis, Debye):
    X=             -2.5980    Y=             -2.8041    Z=             -1.6671  Tot=              4.1704
 Quadrupole moment (field-independent basis, Debye-Ang):
   XX=            -72.6843   YY=            -93.3181   ZZ=            -80.5308
   XY=             -0.0113   XZ=            -13.3914   YZ=              4.9872

  Exact polarizability: 102.253   1.880  93.037  -0.571   2.627  86.738
 Approx polarizability: 130.904   5.381 126.585  -0.836   1.319 126.867

                      1                      2                      3
                      A                      A                      A
 Frequencies --     24.9387                38.9994                61.4017
 Red. masses --      5.7412                 4.8806                 6.5698
 Frc consts  --      0.0021                 0.0044                 0.0146
 IR Inten    --      3.3682                 5.7241                 0.1418

                      4                      5                      6
                      A                      A                      A
 Frequencies --     93.0944               112.1996               141.6399
 Red. masses --      3.3461                 5.4979                 6.3709
 Frc consts  --      0.0171                 0.0408                 0.0753
 IR Inten    --      6.7158                 2.6118                 3.7057

                      7                      8                      9
                      A                      A                      A
 Frequencies --    162.9525               199.8541               209.8364
 Red. masses --      5.8143                 5.0245                 6.0913
 Frc consts  --      0.0910                 0.1182                 0.1580
 IR Inten    --     13.3860                20.5249                 3.2211

                     10                     11                     12
                      A                      A                      A
 Frequencies --    219.1618               240.7152               253.2947
 Red. masses --      4.4830                 3.3976                 2.4620
 Frc consts  --      0.1269                 0.1160                 0.0931
 IR Inten    --      5.3232                30.0554                25.4457

                     13                     14                     15
                      A                      A                      A
 Frequencies --    271.4685               280.4941               298.7711
 Red. masses --      1.5968                 3.9588                 1.3493
 Frc consts  --      0.0693                 0.1835                 0.0710
 IR Inten    --     86.4601                 2.3871                62.2485

                     16                     17                     18
                      A                      A                      A
 Frequencies --    319.3966               334.7432               351.9417
 Red. masses --      1.1152                 3.1204                 2.5855
 Frc consts  --      0.0670                 0.2060                 0.1887
 IR Inten    --     53.1235                20.2474                33.6851

                     19                     20                     21
                      A                      A                      A
 Frequencies --    369.1579               389.9768               404.8633
 Red. masses --      3.0039                 4.4651                 2.4836
 Frc consts  --      0.2412                 0.4001                 0.2399
 IR Inten    --     13.2225                 6.5253                78.2074

                     22                     23                     24
                      A                      A                      A
 Frequencies --    453.6195               477.0945               507.6296
 Red. masses --      4.4720                 1.1430                 5.0603
 Frc consts  --      0.5422                 0.1533                 0.7683
 IR Inten    --     31.8915                11.0402                 7.6544

                     25                     26                     27
                      A                      A                      A
 Frequencies --    546.6922               563.5597               573.0966
 Red. masses --      2.9773                 3.9742                 1.3237
 Frc consts  --      0.5243                 0.7437                 0.2562
 IR Inten    --     37.4828                 8.5724               135.7609

                     28                     29                     30
                      A                      A                      A
 Frequencies --    599.6467               628.9616               633.3909
 Red. masses --      3.1910                 1.2163                 1.2492
 Frc consts  --      0.6760                 0.2835                 0.2953
 IR Inten    --     37.0650               209.9767               100.7312

                     31                     32                     33
                      A                      A                      A
 Frequencies --    697.9637               720.6623               790.3436
 Red. masses --      1.1104                 3.3935                 1.3670
 Frc consts  --      0.3187                 1.0384                 0.5031
 IR Inten    --     63.8584                39.7918                73.0114

                     34                     35                     36
                      A                      A                      A
 Frequencies --    807.0053               853.7895               890.3755
 Red. masses --      2.2365                 2.4610                 3.8654
 Frc consts  --      0.8582                 1.0570                 1.8055
 IR Inten    --     15.0308                55.1509                61.2475

                     37                     38                     39
                      A                      A                      A
 Frequencies --    910.3044              1008.4326              1013.4570
 Red. masses --      2.7015                 2.6141                 1.3651
 Frc consts  --      1.3190                 1.5663                 0.8261
 IR Inten    --     11.1461                93.3865               124.0391

                     40                     41                     42
                      A                      A                      A
 Frequencies --   1029.5273              1052.1386              1070.7138
 Red. masses --      1.7745                 3.9704                 2.7832
 Frc consts  --      1.1081                 2.5896                 1.8799
 IR Inten    --    158.1957                21.7220                64.8496

                     43                     44                     45
                      A                      A                      A
 Frequencies --   1082.3613              1101.6544              1107.6883
 Red. masses --      4.4467                 4.0276                 4.2989
 Frc consts  --      3.0692                 2.8799                 3.1078
 IR Inten    --    130.6995                25.2612                51.5136

                     46                     47                     48
                      A                      A                      A
 Frequencies --   1113.8802              1132.4898              1187.2853
 Red. masses --      2.4364                 3.4544                 3.0902
 Frc consts  --      1.7811                 2.6103                 2.5665
 IR Inten    --     94.3230                29.3313                48.9652

                     49                     50                     51
                      A                      A                      A
 Frequencies --   1208.2174              1252.5496              1256.7099
 Red. masses --      1.1564                 1.2092                 1.2251
 Frc consts  --      0.9946                 1.1177                 1.1399
 IR Inten    --     24.8246                42.9439                24.9396

                     52                     53                     54
                      A                      A                      A
 Frequencies --   1316.0360              1334.5423              1342.9043
 Red. masses --      1.2002                 1.2396                 1.2712
 Frc consts  --      1.2247                 1.3008                 1.3507
 IR Inten    --      3.1488                55.9373                20.1424

                     55                     56                     57
                      A                      A                      A
 Frequencies --   1355.0431              1370.4754              1385.9329
 Red. masses --      1.2524                 1.4086                 1.3081
 Frc consts  --      1.3548                 1.5588                 1.4803
 IR Inten    --     10.7750                18.8654                23.5436

                     58                     59                     60
                      A                      A                      A
 Frequencies --   1410.0574              1411.1783              1417.4880
 Red. masses --      1.4217                 1.3029                 1.2848
 Frc consts  --      1.6655                 1.5288                 1.5210
 IR Inten    --      0.5981                 9.4771                11.0530

                     61                     62                     63
                      A                      A                      A
 Frequencies --   1436.3508              1458.8769              1471.9191
 Red. masses --      1.3933                 1.2157                 1.5808
 Frc consts  --      1.6936                 1.5244                 2.0179
 IR Inten    --     20.8227                83.1039                35.0626

                     64                     65                     66
                      A                      A                      A
 Frequencies --   1503.9672              1530.8094              1545.2051
 Red. masses --      1.2440                 1.0896                 1.2653
 Frc consts  --      1.6578                 1.5044                 1.7800
 IR Inten    --     83.1746                 8.5619                35.9297

                     67                     68                     69
                      A                      A                      A
 Frequencies --   1723.7133              1757.9576              2983.5098
 Red. masses --      1.0758                 1.0684                 1.0842
 Frc consts  --      1.8833                 1.9454                 5.6860
 IR Inten    --     57.5718                57.9921                61.5501

                     70                     71                     72
                      A                      A                      A
 Frequencies --   3041.5782              3056.1515              3060.4429
 Red. masses --      1.0754                 1.0861                 1.0726
 Frc consts  --      5.8616                 5.9767                 5.9194
 IR Inten    --     31.9476                41.0607                53.9221

                     73                     74                     75
                      A                      A                      A
 Frequencies --   3092.7835              3112.8040              3117.1584
 Red. masses --      1.0909                 1.0977                 1.0874
 Frc consts  --      6.1482                 6.2667                 6.2250
 IR Inten    --      5.7883                40.1767                28.3332

                     76                     77                     78
                      A                      A                      A
 Frequencies --   3223.8434              3370.2758              3488.3483
 Red. masses --      1.0697                 1.0623                 1.0591
 Frc consts  --      6.5501                 7.1092                 7.5930
 IR Inten    --    756.8929               999.0157               805.3501

                     79                     80                     81
                      A                      A                      A
 Frequencies --   3633.7115              3661.1034              3693.7908
 Red. masses --      1.0662                 1.0645                 1.0656
 Frc consts  --      8.2944                 8.4067                 8.5658
 IR Inten    --    162.2054                37.2601                77.1362

                     82                     83                     84
                      A                      A                      A
 Frequencies --   3752.3572              3795.8290              3798.8170
 Red. masses --      1.0666                 1.0684                 1.0675
 Frc consts  --      8.8480                 9.0698                 9.0763
 IR Inten    --     23.5005                61.0132                51.8938

 - Thermochemistry -
 -------------------
 Temperature   298.150 Kelvin.  Pressure   1.00000 Atm.
 Atom     1 has atomic number  6 and mass  12.00000

 Molecular mass:   216.08452 amu.
 Principal axes and moments of inertia in atomic units:
                           1         2         3
     Eigenvalues --  2324.621713736.305954519.68717
           X            0.99992  -0.00912  -0.00906
           Y            0.00926   0.99983   0.01584
           Z            0.00892  -0.01592   0.99983
 This molecule is an asymmetric top.
 Rotational symmetry number  1.
 Warning -- assumption of classical behavior for rotation
           may cause significant error
 Rotational temperatures (Kelvin)      0.03726     0.02318     0.01916
 Rotational constants (GHZ):           0.77636     0.48303     0.39931
 Zero-point vibrational energy     656182.2 (Joules/Mol)
                                  156.83132 (Kcal/Mol)
 Warning -- explicit consideration of  28 degrees of freedom as
           vibrations may cause significant error
 Vibrational temperatures:     35.88    56.11    88.34   133.94   161.43
          (Kelvin)            203.79   234.45   287.55   301.91   315.32
                              346.34   364.43   390.58   403.57   429.86
                              459.54   481.62   506.36   531.14   561.09
                              582.51   652.66   686.43   730.36   786.57
                              810.84   824.56   862.76   904.93   911.31
                             1004.21  1036.87  1137.13  1161.10  1228.41
                             1281.05  1309.72  1450.91  1458.14  1481.26
                             1513.79  1540.52  1557.27  1585.03  1593.71
                             1602.62  1629.40  1708.24  1738.35  1802.14
                             1808.12  1893.48  1920.11  1932.14  1949.60
                             1971.81  1994.05  2028.76  2030.37  2039.45
                             2066.59  2099.00  2117.76  2163.87  2202.49
                             2223.20  2480.04  2529.31  4292.60  4376.15
                             4397.11  4403.29  4449.82  4478.63  4484.89
                             4638.39  4849.07  5018.95  5228.09  5267.50
                             5314.53  5398.80  5461.34  5465.64

 Zero-point correction=                           0.249927 (Hartree/Particle)
 Thermal correction to Energy=                    0.266816
 Thermal correction to Enthalpy=                  0.267760
 Thermal correction to Gibbs Free Energy=         0.205727
 Sum of electronic and zero-point Energies=           -839.755669
 Sum of electronic and thermal Energies=              -839.738780
 Sum of electronic and thermal Enthalpies=            -839.737836
 Sum of electronic and thermal Free Energies=         -839.799869

                     E (Thermal)             CV                S
                      KCal/Mol        Cal/Mol-Kelvin    Cal/Mol-Kelvin
 Total                  167.429             63.132            130.560
 Electronic               0.000              0.000              0.000
 Translational            0.889              2.981             42.015
 Rotational               0.889              2.981             32.040
 Vibrational            165.652             57.171             56.505
 Vibration     1          0.593              1.985              6.196
 Vibration     2          0.594              1.981              5.309
 Vibration     3          0.597              1.973              4.412
 Vibration     4          0.602              1.954              3.594
 Vibration     5          0.607              1.939              3.231
 Vibration     6          0.615              1.912              2.782
 Vibration     7          0.623              1.888              2.515
 Vibration     8          0.638              1.840              2.134
 Vibration     9          0.642              1.826              2.045
 Vibration    10          0.647              1.812              1.966
 Vibration    11          0.658              1.778              1.798
 Vibration    12          0.664              1.757              1.708
 Vibration    13          0.675              1.726              1.587
 Vibration    14          0.680              1.710              1.531
 Vibration    15          0.692              1.676              1.424
 Vibration    16          0.705              1.636              1.313
 Vibration    17          0.716              1.606              1.237
 Vibration    18          0.728              1.571              1.157
 Vibration    19          0.741              1.536              1.083
 Vibration    20          0.758              1.492              1.000
 Vibration    21          0.770              1.460              0.945
 Vibration    22          0.812              1.353              0.785
 Vibration    23          0.834              1.301              0.718
 Vibration    24          0.863              1.233              0.639
 Vibration    25          0.902              1.147              0.551
 Vibration    26          0.919              1.110              0.517
 Vibration    27          0.929              1.089              0.498
 Vibration    28          0.958              1.033              0.450

 Normal termination of Gaussian 09 at Sun Jan 15 13:35:01 2017.
