 Gaussian 09, Revision E.01,
 Gaussian 09:  ES64L-G09RevE.01 30-Nov-2015

 -----------------------------------------
 # opt=(MaxCycle=1000) freq B3LYP/6-31G(d)
 -----------------------------------------

 --------------------------------------------------
 ./chairs/2/glo_2w_beta_ircr_chair2_B3LYP_631Gd.out
 --------------------------------------------------
 Symbolic Z-matrix:
 Charge =  0 Multiplicity = 1

 SCF Done:  E(RB3LYP) =  -839.990414420     A.U. after   14 cycles
 SCF Done:  E(RB3LYP) =  -839.996665181     A.U. after   11 cycles
 SCF Done:  E(RB3LYP) =  -839.999522139     A.U. after   12 cycles
 SCF Done:  E(RB3LYP) =  -840.003210550     A.U. after   12 cycles
 SCF Done:  E(RB3LYP) =  -840.002805527     A.U. after   11 cycles
 SCF Done:  E(RB3LYP) =  -840.004018105     A.U. after    9 cycles
 SCF Done:  E(RB3LYP) =  -840.003914708     A.U. after   12 cycles
 SCF Done:  E(RB3LYP) =  -840.004643233     A.U. after    9 cycles
 SCF Done:  E(RB3LYP) =  -840.004743356     A.U. after   11 cycles
 SCF Done:  E(RB3LYP) =  -840.004794630     A.U. after   11 cycles
 SCF Done:  E(RB3LYP) =  -840.004964189     A.U. after   10 cycles
 SCF Done:  E(RB3LYP) =  -840.004953708     A.U. after    9 cycles
 SCF Done:  E(RB3LYP) =  -840.004943559     A.U. after    9 cycles
 SCF Done:  E(RB3LYP) =  -840.004944796     A.U. after    8 cycles
 SCF Done:  E(RB3LYP) =  -840.004946529     A.U. after    8 cycles
 SCF Done:  E(RB3LYP) =  -840.004947411     A.U. after    7 cycles
 SCF Done:  E(RB3LYP) =  -840.004947198     A.U. after    7 cycles
 SCF Done:  E(RB3LYP) =  -840.004946870     A.U. after    7 cycles
 SCF Done:  E(RB3LYP) =  -840.004946389     A.U. after    7 cycles
 Optimization completed.
    -- Stationary point found.
 Normal termination of Gaussian 09 at Sun Jan 15 13:14:52 2017.

 --------------------------------------------------------------------
 #N Geom=AllCheck Guess=TCheck SCRF=Check GenChk RB3LYP/6-31G(d) Freq
 --------------------------------------------------------------------

 Structure from the checkpoint file:  "/scratch/10462974.yak.local/Gau-12669.chk"
 --------------------------------------------------
 ./chairs/2/glo_2w_beta_ircr_chair2_B3LYP_631Gd.out
 --------------------------------------------------
 Charge =  0 Multiplicity = 1

                         Standard orientation:
 ---------------------------------------------------------------------
 Center     Atomic      Atomic             Coordinates (Angstroms)
 Number     Number       Type             X           Y           Z
 ---------------------------------------------------------------------
      1          6           0        0.469867   -1.118821    0.368809
      2          8           0        0.564064   -0.350934   -0.833847
      3          6           0       -0.983531   -1.499384    0.703125
      4          6           0       -1.872266   -0.242007    0.699914
      5          6           0       -1.761317    0.489342   -0.655515
      6          6           0       -0.296866    0.821386   -0.992783
      7          1           0       -0.989594   -1.947625    1.705781
      8          1           0       -2.299818    1.437097   -0.588238
      9          1           0       -0.276792    0.989038   -2.072779
     10          1           0       -2.914270   -0.544431    0.843556
     11          8           0       -1.521945   -2.407320   -0.258161
     12          8           0       -1.514731    0.624208    1.783430
     13          8           0       -2.384752   -0.246613   -1.694970
     14          1           0       -0.583160    0.435926    2.019025
     15          1           0       -0.936651   -3.178781   -0.319436
     16          1           0       -2.070747   -1.165618   -1.618079
     17          6           0        0.292782    2.066793   -0.253135
     18          8           0       -0.684644    2.931357    0.292524
     19          1           0        0.857508    2.670588   -0.971828
     20          1           0        0.999842    1.723564    0.510010
     21          1           0       -1.118117    2.425463    1.008697
     22          8           0        0.978150   -0.481343    1.505292
     23          1           0        1.958550   -0.315758    1.388236
     24          1           0        1.057747   -2.018222    0.127948
     25          1           0        2.236043   -0.330623   -1.546997
     26          8           0        3.576432   -0.093691    1.008290
     27          1           0        4.152090   -0.811355    1.311662
     28          8           0        3.214932   -0.327212   -1.660474
     29          1           0        3.407890    0.472307   -2.173103
     30          1           0        3.607413   -0.133031    0.016383
 ---------------------------------------------------------------------

 SCF Done:  E(RB3LYP) =  -840.004946389     A.U. after    1 cycles

 The electronic state is 1-A.
 Alpha  occ. eigenvalues --  -19.18475 -19.18228 -19.16823 -19.16359 -19.16225
 Alpha  occ. eigenvalues --  -19.15688 -19.12959 -19.12873 -10.30843 -10.26086
 Alpha  occ. eigenvalues --  -10.24699 -10.24196 -10.23142 -10.22671  -1.08563
 Alpha  occ. eigenvalues --   -1.05343  -1.03082  -1.02821  -1.02353  -1.01063
 Alpha  occ. eigenvalues --   -1.00346  -0.99998  -0.77922  -0.77192  -0.69078
 Alpha  occ. eigenvalues --   -0.66076  -0.63940  -0.57724  -0.56361  -0.55049
 Alpha  occ. eigenvalues --   -0.54541  -0.53755  -0.52109  -0.50860  -0.49265
 Alpha  occ. eigenvalues --   -0.48377  -0.46486  -0.45020  -0.43605  -0.43256
 Alpha  occ. eigenvalues --   -0.42138  -0.41926  -0.40585  -0.38971  -0.38319
 Alpha  occ. eigenvalues --   -0.38152  -0.36130  -0.35926  -0.33369  -0.32827
 Alpha  occ. eigenvalues --   -0.32069  -0.31111  -0.30631  -0.30220  -0.29338
 Alpha  occ. eigenvalues --   -0.28502  -0.25766  -0.24401
 Alpha virt. eigenvalues --    0.03618   0.03814   0.06773   0.08087   0.09222
 Alpha virt. eigenvalues --    0.11296   0.12199   0.12785   0.13895   0.15025
 Alpha virt. eigenvalues --    0.16158   0.17386   0.17737   0.18232   0.19826

 Mulliken charges:
               1
     1  C    0.307704
     2  O   -0.542636
     3  C    0.071690
     4  C    0.103153
     5  C    0.095675
     6  C    0.076434
     7  H    0.156406
     8  H    0.167581
     9  H    0.158773
    10  H    0.164111
    11  O   -0.634502
    12  O   -0.672311
    13  O   -0.651972
    14  H    0.439854
    15  H    0.405620
    16  H    0.417592
    17  C   -0.061925
    18  O   -0.632426
    19  H    0.135203
    20  H    0.141866
    21  H    0.415039
    22  O   -0.676275
    23  H    0.457886
    24  H    0.120315
    25  H    0.439866
    26  O   -0.823775
    27  H    0.400992
    28  O   -0.816707
    29  H    0.403765
    30  H    0.433002
 Sum of Mulliken charges =  -0.00000

 Dipole moment (field-independent basis, Debye):
    X=              4.0559    Y=             -4.0240    Z=             -0.2150  Tot=              5.7174
 Quadrupole moment (field-independent basis, Debye-Ang):
   XX=            -84.1708   YY=            -82.2650   ZZ=            -85.7983
   XY=              1.1061   XZ=             -4.4487   YZ=             -6.4327

  Exact polarizability:  98.632  -0.428  94.345   0.620  -3.096  86.542
 Approx polarizability: 128.246  -3.521 128.534   2.141   0.021 127.761

                      1                      2                      3
                      A                      A                      A
 Frequencies --     28.2094                36.7471                71.1961
 Red. masses --      5.3024                 5.4918                 4.7614
 Frc consts  --      0.0025                 0.0044                 0.0142
 IR Inten    --      3.1034                 0.2065                 6.2502

                      4                      5                      6
                      A                      A                      A
 Frequencies --     91.9598               132.3987               155.1029
 Red. masses --      3.6746                 5.3186                 6.2853
 Frc consts  --      0.0183                 0.0549                 0.0891
 IR Inten    --      0.5961                 2.0479                 1.3403

                      7                      8                      9
                      A                      A                      A
 Frequencies --    164.8538               192.2832               220.0295
 Red. masses --      5.6729                 6.1374                 4.6018
 Frc consts  --      0.0908                 0.1337                 0.1313
 IR Inten    --      5.1173                14.4406                 7.2683

                     10                     11                     12
                      A                      A                      A
 Frequencies --    239.2999               251.1465               260.1163
 Red. masses --      6.5696                 1.0744                 3.9025
 Frc consts  --      0.2217                 0.0399                 0.1556
 IR Inten    --      1.9051               144.1263                 3.9217

                     13                     14                     15
                      A                      A                      A
 Frequencies --    279.8503               289.4127               302.1304
 Red. masses --      3.0264                 2.4118                 2.8593
 Frc consts  --      0.1396                 0.1190                 0.1538
 IR Inten    --     48.5589                27.0826                25.4524

                     16                     17                     18
                      A                      A                      A
 Frequencies --    341.5140               348.1702               351.4077
 Red. masses --      4.2928                 1.5905                 2.2163
 Frc consts  --      0.2950                 0.1136                 0.1612
 IR Inten    --     24.8501                68.7962                44.9103

                     19                     20                     21
                      A                      A                      A
 Frequencies --    386.2467               407.1677               429.6906
 Red. masses --      5.5669                 2.9676                 1.2812
 Frc consts  --      0.4893                 0.2899                 0.1394
 IR Inten    --      6.1028                 1.0544                40.7664

                     22                     23                     24
                      A                      A                      A
 Frequencies --    470.8979               492.7614               503.3175
 Red. masses --      4.0459                 1.2564                 4.9201
 Frc consts  --      0.5286                 0.1797                 0.7344
 IR Inten    --     16.4697                43.7270                10.1557

                     25                     26                     27
                      A                      A                      A
 Frequencies --    546.0306               558.7523               581.5882
 Red. masses --      1.1771                 4.4921                 2.2527
 Frc consts  --      0.2068                 0.8263                 0.4489
 IR Inten    --    106.5412                 1.8145                38.8889

                     28                     29                     30
                      A                      A                      A
 Frequencies --    602.1992               621.7125               641.4630
 Red. masses --      1.6159                 3.3136                 5.6655
 Frc consts  --      0.3453                 0.7546                 1.3735
 IR Inten    --     66.2703                43.5348                14.4166

                     31                     32                     33
                      A                      A                      A
 Frequencies --    699.5429               737.7294               765.7054
 Red. masses --      1.1140                 1.1419                 3.2297
 Frc consts  --      0.3212                 0.3661                 1.1157
 IR Inten    --    174.9628               141.7532                17.1541

                     34                     35                     36
                      A                      A                      A
 Frequencies --    854.6572               869.5778               921.5401
 Red. masses --      2.9019                 2.8940                 1.1760
 Frc consts  --      1.2489                 1.2894                 0.5884
 IR Inten    --     28.0545                37.9904               151.1951

                     37                     38                     39
                      A                      A                      A
 Frequencies --    938.0795              1003.2509              1018.4824
 Red. masses --      1.9732                 1.5689                 1.9266
 Frc consts  --      1.0231                 0.9304                 1.1775
 IR Inten    --     29.4321               230.5352                21.5200

                     40                     41                     42
                      A                      A                      A
 Frequencies --   1034.6377              1053.7973              1070.6337
 Red. masses --      2.8325                 2.8674                 3.9957
 Frc consts  --      1.7865                 1.8761                 2.6985
 IR Inten    --     57.6984                69.4553                98.5910

                     43                     44                     45
                      A                      A                      A
 Frequencies --   1079.1587              1095.4642              1111.1575
 Red. masses --      3.2511                 3.7490                 5.3237
 Frc consts  --      2.2307                 2.6507                 3.8727
 IR Inten    --     29.8315                14.2429               101.8892

                     46                     47                     48
                      A                      A                      A
 Frequencies --   1116.6247              1129.4378              1140.7462
 Red. masses --      4.3632                 2.9347                 3.1918
 Frc consts  --      3.2053                 2.2057                 2.4472
 IR Inten    --    120.5428                14.6065                72.4131

                     49                     50                     51
                      A                      A                      A
 Frequencies --   1216.5056              1251.1393              1274.6041
 Red. masses --      1.2153                 1.1238                 1.2604
 Frc consts  --      1.0596                 1.0364                 1.2064
 IR Inten    --     52.9842                15.8532                22.4511

                     52                     53                     54
                      A                      A                      A
 Frequencies --   1319.0982              1321.7487              1333.9298
 Red. masses --      1.2661                 1.1492                 1.2532
 Frc consts  --      1.2980                 1.1829                 1.3139
 IR Inten    --      1.6880                 2.5748                32.1482

                     55                     56                     57
                      A                      A                      A
 Frequencies --   1356.1094              1378.6914              1389.0960
 Red. masses --      1.2821                 1.3870                 1.3004
 Frc consts  --      1.3892                 1.5534                 1.4784
 IR Inten    --      0.6201                12.6757                 1.5750

                     58                     59                     60
                      A                      A                      A
 Frequencies --   1398.6352              1419.9686              1427.8061
 Red. masses --      1.3123                 1.2247                 1.3168
 Frc consts  --      1.5125                 1.4549                 1.5817
 IR Inten    --      2.1025                29.3921                 2.6198

                     61                     62                     63
                      A                      A                      A
 Frequencies --   1447.7078              1475.4228              1494.2004
 Red. masses --      1.4045                 1.1971                 1.2150
 Frc consts  --      1.7344                 1.5354                 1.5982
 IR Inten    --     18.0691                90.3859                66.1070

                     64                     65                     66
                      A                      A                      A
 Frequencies --   1500.8924              1529.4308              1538.6281
 Red. masses --      1.2856                 1.2907                 1.0804
 Frc consts  --      1.7063                 1.7788                 1.5070
 IR Inten    --     34.7277                95.6410                 2.8357

                     67                     68                     69
                      A                      A                      A
 Frequencies --   1726.4027              1748.5143              3007.8726
 Red. masses --      1.0787                 1.0681                 1.0854
 Frc consts  --      1.8942                 1.9240                 5.7858
 IR Inten    --     93.0805                15.2234                62.9571

                     70                     71                     72
                      A                      A                      A
 Frequencies --   3048.9043              3062.9894              3092.8158
 Red. masses --      1.0856                 1.0579                 1.0950
 Frc consts  --      5.9455                 5.8478                 6.1714
 IR Inten    --     37.0012                38.9205                 4.3269

                     73                     74                     75
                      A                      A                      A
 Frequencies --   3095.2508              3112.7004              3124.7351
 Red. masses --      1.0875                 1.0996                 1.0864
 Frc consts  --      6.1384                 6.2774                 6.2497
 IR Inten    --     40.8857                44.1589                14.9429

                     76                     77                     78
                      A                      A                      A
 Frequencies --   3179.9871              3365.1873              3501.2169
 Red. masses --      1.0700                 1.0622                 1.0588
 Frc consts  --      6.3753                 7.0871                 7.6471
 IR Inten    --    976.6283               794.5213               718.6837

                     79                     80                     81
                      A                      A                      A
 Frequencies --   3579.3567              3610.1140              3675.0221
 Red. masses --      1.0673                 1.0660                 1.0656
 Frc consts  --      8.0564                 8.1852                 8.4791
 IR Inten    --    119.7048               150.0889               126.3523

                     82                     83                     84
                      A                      A                      A
 Frequencies --   3740.3336              3799.4436              3801.6324
 Red. masses --      1.0663                 1.0691                 1.0674
 Frc consts  --      8.7891                 9.0934                 9.0890
 IR Inten    --     13.6247                77.7837                46.3453

 - Thermochemistry -
 -------------------
 Temperature   298.150 Kelvin.  Pressure   1.00000 Atm.
 Atom     1 has atomic number  6 and mass  12.00000

 Molecular mass:   216.08452 amu.
 Principal axes and moments of inertia in atomic units:
                           1         2         3
     Eigenvalues --  2344.403803570.934954013.53868
           X            0.99997   0.00143  -0.00792
           Y           -0.00171   0.99937  -0.03550
           Z            0.00787   0.03551   0.99934
 This molecule is an asymmetric top.
 Rotational symmetry number  1.
 Warning -- assumption of classical behavior for rotation
           may cause significant error
 Rotational temperatures (Kelvin)      0.03694     0.02426     0.02158
 Rotational constants (GHZ):           0.76981     0.50540     0.44966
 Zero-point vibrational energy     657850.2 (Joules/Mol)
                                  157.22998 (Kcal/Mol)
 Warning -- explicit consideration of  28 degrees of freedom as
           vibrations may cause significant error
 Vibrational temperatures:     40.59    52.87   102.44   132.31   190.49
          (Kelvin)            223.16   237.19   276.65   316.57   344.30
                              361.34   374.25   402.64   416.40   434.70
                              491.36   500.94   505.60   555.72   585.82
                              618.23   677.52   708.97   724.16   785.62
                              803.92   836.77   866.43   894.50   922.92
                             1006.49  1061.43  1101.68  1229.66  1251.13
                             1325.89  1349.69  1443.45  1465.37  1488.61
                             1516.18  1540.40  1552.67  1576.13  1598.71
                             1606.57  1625.01  1641.28  1750.28  1800.11
                             1833.87  1897.89  1901.70  1919.23  1951.14
                             1983.63  1998.60  2012.32  2043.02  2054.29
                             2082.93  2122.80  2149.82  2159.45  2200.51
                             2213.74  2483.91  2515.72  4327.65  4386.69
                             4406.95  4449.87  4453.37  4478.48  4495.79
                             4575.29  4841.75  5037.46  5149.89  5194.14
                             5287.53  5381.50  5466.55  5469.69

 Zero-point correction=                           0.250562 (Hartree/Particle)
 Thermal correction to Energy=                    0.267133
 Thermal correction to Enthalpy=                  0.268078
 Thermal correction to Gibbs Free Energy=         0.207008
 Sum of electronic and zero-point Energies=           -839.754384
 Sum of electronic and thermal Energies=              -839.737813
 Sum of electronic and thermal Enthalpies=            -839.736869
 Sum of electronic and thermal Free Energies=         -839.797938

                     E (Thermal)             CV                S
                      KCal/Mol        Cal/Mol-Kelvin    Cal/Mol-Kelvin
 Total                  167.629             62.556            128.531
 Electronic               0.000              0.000              0.000
 Translational            0.889              2.981             42.015
 Rotational               0.889              2.981             31.886
 Vibrational            165.851             56.595             54.631
 Vibration     1          0.593              1.984              5.952
 Vibration     2          0.594              1.982              5.427
 Vibration     3          0.598              1.968              4.120
 Vibration     4          0.602              1.955              3.618
 Vibration     5          0.613              1.921              2.911
 Vibration     6          0.620              1.897              2.609
 Vibration     7          0.623              1.886              2.493
 Vibration     8          0.634              1.851              2.206
 Vibration     9          0.647              1.811              1.959
 Vibration    10          0.657              1.780              1.808
 Vibration    11          0.663              1.761              1.723
 Vibration    12          0.668              1.746              1.661
 Vibration    13          0.680              1.711              1.535
 Vibration    14          0.686              1.693              1.477
 Vibration    15          0.694              1.670              1.405
 Vibration    16          0.721              1.593              1.205
 Vibration    17          0.726              1.579              1.174
 Vibration    18          0.728              1.572              1.160
 Vibration    19          0.755              1.500              1.015
 Vibration    20          0.772              1.455              0.937
 Vibration    21          0.791              1.406              0.860
 Vibration    22          0.828              1.315              0.735
 Vibration    23          0.848              1.266              0.676
 Vibration    24          0.859              1.243              0.650
 Vibration    25          0.901              1.148              0.552
 Vibration    26          0.914              1.121              0.526
 Vibration    27          0.938              1.071              0.482
 Vibration    28          0.961              1.027              0.446

 Normal termination of Gaussian 09 at Sun Jan 15 13:32:28 2017.
