 Gaussian 09, Revision D.01,
 Gaussian 09:  ES64L-G09RevD.01 24-Apr-2013

 ------------------------------------------------------
 # opt=(modredundant,MaxCycle=1000) freq B3LYP/6-31G(d)
 ------------------------------------------------------

 -------------------------------------------------------------------
 ./opt_IRC/b3lyp/boats/6/glo_1w_alpha_ircf_boat6_B3LYP_631Gd_opt.out
 -------------------------------------------------------------------
 Symbolic Z-matrix:
 Charge =  0 Multiplicity = 1

 SCF Done:  E(RB3LYP) =  -839.980971523     A.U. after   13 cycles
 SCF Done:  E(RB3LYP) =  -839.985673704     A.U. after   13 cycles
 SCF Done:  E(RB3LYP) =  -839.983673897     A.U. after   13 cycles
 SCF Done:  E(RB3LYP) =  -839.989373189     A.U. after   10 cycles
 SCF Done:  E(RB3LYP) =  -839.991066990     A.U. after   11 cycles
 SCF Done:  E(RB3LYP) =  -839.987159729     A.U. after   11 cycles
 SCF Done:  E(RB3LYP) =  -839.991417174     A.U. after    9 cycles
 SCF Done:  E(RB3LYP) =  -839.992185249     A.U. after   11 cycles
 SCF Done:  E(RB3LYP) =  -839.992950911     A.U. after   11 cycles
 SCF Done:  E(RB3LYP) =  -839.993698066     A.U. after   10 cycles
 SCF Done:  E(RB3LYP) =  -839.995251951     A.U. after    7 cycles
 SCF Done:  E(RB3LYP) =  -839.995254429     A.U. after    7 cycles
 SCF Done:  E(RB3LYP) =  -839.995256095     A.U. after    7 cycles
 SCF Done:  E(RB3LYP) =  -839.995257065     A.U. after    7 cycles
 SCF Done:  E(RB3LYP) =  -839.995258065     A.U. after    7 cycles
 SCF Done:  E(RB3LYP) =  -839.995258818     A.U. after    7 cycles
 SCF Done:  E(RB3LYP) =  -839.995259161     A.U. after    7 cycles
 SCF Done:  E(RB3LYP) =  -839.995259336     A.U. after    7 cycles
 SCF Done:  E(RB3LYP) =  -839.995259430     A.U. after    6 cycles
 Optimization completed.
    -- Stationary point found.
 Normal termination of Gaussian 09 at Tue Jan 24 19:12:18 2017.

 --------------------------------------------------------------------
 #N Geom=AllCheck Guess=TCheck SCRF=Check GenChk RB3LYP/6-31G(d) Freq
 --------------------------------------------------------------------

 Structure from the checkpoint file:  "/home/iawad/Gau-15919.chk"
 -------------------------------------------------------------------
 ./opt_IRC/b3lyp/boats/6/glo_1w_alpha_ircf_boat6_B3LYP_631Gd_opt.out
 -------------------------------------------------------------------
 Charge =  0 Multiplicity = 1

                         Standard orientation:
 ---------------------------------------------------------------------
 Center     Atomic      Atomic             Coordinates (Angstroms)
 Number     Number       Type             X           Y           Z
 ---------------------------------------------------------------------
      1          6           0       -0.351209    0.915081    0.187559
      2          6           0        1.525072   -0.811054    0.100992
      3          6           0        1.152284    0.700275    0.003728
      4          6           0        0.321484   -1.732862    0.354906
      5          1           0        0.630110   -2.768424    0.141936
      6          1           0        2.191013   -0.920209    0.960910
      7          1           0       -0.587520    0.754956    1.246583
      8          1           0        1.393427    1.005066   -1.033890
      9          6           0       -0.830236   -1.374247   -0.596534
     10          8           0       -1.113493    0.016715   -0.623132
     11          6           0       -0.821408    2.303240   -0.200243
     12          1           0       -0.247786    3.045136    0.368203
     13          1           0       -0.651727    2.462000   -1.275427
     14          8           0       -2.219634    2.373695    0.109949
     15          1           0       -2.561141    3.216869   -0.223070
     16          8           0       -0.093815   -1.587818    1.695011
     17          1           0       -1.025940   -1.883556    1.679080
     18          8           0        2.304552   -1.248571   -1.026665
     19          1           0        1.808510   -1.052809   -1.838355
     20          8           0        1.846999    1.508167    0.922529
     21          1           0        2.790895    1.448394    0.653859
     22          8           0       -3.930793   -0.092068   -0.317414
     23          1           0       -2.749708   -1.467402   -0.288990
     24          1           0       -3.255068    0.617233   -0.351206
     25          1           0       -4.321023    0.002694    0.564796
     26          8           0        4.239885    0.706682   -0.329161
     27          1           0        4.908811    0.297478    0.240067
     28          1           0        3.771745   -0.048470   -0.745821
     29          8           0       -1.967573   -2.056328   -0.127360
     30          1           0       -0.599543   -1.675352   -1.631185
 ---------------------------------------------------------------------

 SCF Done:  E(RB3LYP) =  -839.995259430     A.U. after    1 cycles

 The electronic state is 1-A.
 Alpha  occ. eigenvalues --  -19.18109 -19.16675 -19.15883 -19.15580 -19.14467
 Alpha  occ. eigenvalues --  -19.14274 -19.13690 -19.13340 -10.28605 -10.24586
 Alpha  occ. eigenvalues --  -10.24239 -10.24023 -10.23917 -10.23753  -1.07328
 Alpha  occ. eigenvalues --   -1.04906  -1.03443  -1.01821  -1.01583  -1.00806
 Alpha  occ. eigenvalues --   -1.00193  -0.98862  -0.78079  -0.76833  -0.69209
 Alpha  occ. eigenvalues --   -0.65414  -0.62427  -0.56938  -0.55144  -0.53617
 Alpha  occ. eigenvalues --   -0.53410  -0.52541  -0.51300  -0.50917  -0.50088
 Alpha  occ. eigenvalues --   -0.48417  -0.45955  -0.44245  -0.43420  -0.42704
 Alpha  occ. eigenvalues --   -0.42042  -0.40596  -0.39576  -0.39005  -0.37103
 Alpha  occ. eigenvalues --   -0.36501  -0.36133  -0.34969  -0.34537  -0.32170
 Alpha  occ. eigenvalues --   -0.31286  -0.30118  -0.29586  -0.29136  -0.27948
 Alpha  occ. eigenvalues --   -0.27270  -0.26138  -0.25117
 Alpha virt. eigenvalues --    0.03987   0.05115   0.06996   0.08155   0.08993
 Alpha virt. eigenvalues --    0.10622   0.12960   0.13740   0.14156   0.14804
 Alpha virt. eigenvalues --    0.15557   0.16795   0.17772   0.18212   0.18706

 Mulliken charges:
               1
     1  C    0.128227
     2  C    0.078527
     3  C    0.109681
     4  C    0.089122
     5  H    0.138501
     6  H    0.168006
     7  H    0.166986
     8  H    0.098994
     9  C    0.350087
    10  O   -0.541401
    11  C   -0.047336
    12  H    0.162399
    13  H    0.128713
    14  O   -0.632993
    15  H    0.404637
    16  O   -0.640521
    17  H    0.410464
    18  O   -0.646153
    19  H    0.405335
    20  O   -0.664715
    21  H    0.428433
    22  O   -0.810708
    23  H    0.440374
    24  H    0.441947
    25  H    0.393823
    26  O   -0.810431
    27  H    0.398941
    28  H    0.428298
    29  O   -0.684654
    30  H    0.107416
 Sum of Mulliken charges =   0.00000

 Dipole moment (field-independent basis, Debye):
    X=              0.5871    Y=              1.6874    Z=             -1.1960  Tot=              2.1500
 Quadrupole moment (field-independent basis, Debye-Ang):
   XX=            -77.2206   YY=            -81.2219   ZZ=            -83.7430
   XY=            -12.2951   XZ=             -4.8309   YZ=             -1.7571

  Exact polarizability: 107.970  -0.364  95.959  -1.249   1.581  80.014
 Approx polarizability: 133.718   1.779 125.697  -1.300   3.867 124.878

 ******    1 imaginary frequencies (negative Signs) ******

                      1                      2                      3
                      A                      A                      A
 Frequencies --    -34.7134                37.5142                58.0161
 Red. masses --      6.7827                 5.6626                 5.7350
 Frc consts  --      0.0048                 0.0047                 0.0114
 IR Inten    --      3.8977                 1.0565                 4.2563

                      4                      5                      6
                      A                      A                      A
 Frequencies --     77.8321               109.4305               129.4777
 Red. masses --      5.6569                 5.6300                 4.5497
 Frc consts  --      0.0202                 0.0397                 0.0449
 IR Inten    --      4.6371                 1.6839                 2.1034

                      7                      8                      9
                      A                      A                      A
 Frequencies --    159.0931               172.5577               183.6235
 Red. masses --      5.0772                 6.2078                 3.5846
 Frc consts  --      0.0757                 0.1089                 0.0712
 IR Inten    --      2.2687                 2.5331                 9.5090

                     10                     11                     12
                      A                      A                      A
 Frequencies --    192.0069               213.5336               228.1964
 Red. masses --      6.8181                 4.2012                 3.5736
 Frc consts  --      0.1481                 0.1129                 0.1096
 IR Inten    --     21.5303                12.6489                14.5687

                     13                     14                     15
                      A                      A                      A
 Frequencies --    243.1656               274.4587               277.3183
 Red. masses --      1.2452                 1.4416                 1.3856
 Frc consts  --      0.0434                 0.0640                 0.0628
 IR Inten    --     82.3730               102.6942               155.4473

                     16                     17                     18
                      A                      A                      A
 Frequencies --    281.9984               308.6301               322.6395
 Red. masses --      1.5920                 2.3376                 3.5887
 Frc consts  --      0.0746                 0.1312                 0.2201
 IR Inten    --     20.4416                59.0524                36.6371

                     19                     20                     21
                      A                      A                      A
 Frequencies --    340.0528               365.9189               390.9981
 Red. masses --      1.5091                 1.9281                 2.5644
 Frc consts  --      0.1028                 0.1521                 0.2310
 IR Inten    --     87.0132                11.4475                10.6500

                     22                     23                     24
                      A                      A                      A
 Frequencies --    415.5208               427.9629               451.7997
 Red. masses --      5.3539                 3.2183                 1.4044
 Frc consts  --      0.5446                 0.3473                 0.1689
 IR Inten    --      3.5157                49.3715                 7.6227

                     25                     26                     27
                      A                      A                      A
 Frequencies --    487.7350               514.8797               545.2325
 Red. masses --      2.4067                 5.5075                 3.6678
 Frc consts  --      0.3373                 0.8602                 0.6424
 IR Inten    --     10.5070                14.1027                11.3711

                     28                     29                     30
                      A                      A                      A
 Frequencies --    567.2770               597.9277               645.1087
 Red. masses --      1.2154                 3.1433                 1.1870
 Frc consts  --      0.2304                 0.6621                 0.2910
 IR Inten    --     84.4440                 4.1429               218.5458

                     31                     32                     33
                      A                      A                      A
 Frequencies --    673.1434               711.0548               781.6411
 Red. masses --      3.0737                 1.1385                 1.0850
 Frc consts  --      0.8206                 0.3391                 0.3906
 IR Inten    --     51.2435                86.7256               246.9450

                     34                     35                     36
                      A                      A                      A
 Frequencies --    806.5111               821.6810               851.3398
 Red. masses --      1.1960                 3.0084                 4.2981
 Frc consts  --      0.4584                 1.1967                 1.8354
 IR Inten    --     91.2216                20.4860                24.2992

                     37                     38                     39
                      A                      A                      A
 Frequencies --    901.3868               949.5930              1027.7253
 Red. masses --      2.4356                 2.8611                 4.3317
 Frc consts  --      1.1659                 1.5200                 2.6956
 IR Inten    --     15.9875               100.2759                63.8257

                     40                     41                     42
                      A                      A                      A
 Frequencies --   1050.7156              1065.8608              1085.3334
 Red. masses --      5.0767                 2.7346                 4.0195
 Frc consts  --      3.3022                 1.8304                 2.7897
 IR Inten    --     39.4766                69.9146               185.6620

                     43                     44                     45
                      A                      A                      A
 Frequencies --   1102.4167              1114.5553              1135.2632
 Red. masses --      2.6571                 3.0411                 5.0606
 Frc consts  --      1.9026                 2.2258                 3.8428
 IR Inten    --     12.2069                37.3495               126.3888

                     46                     47                     48
                      A                      A                      A
 Frequencies --   1140.8151              1151.2385              1159.6044
 Red. masses --      4.1637                 2.3612                 3.4706
 Frc consts  --      3.1927                 1.8438                 2.7496
 IR Inten    --     47.3740                35.8305                32.5820

                     49                     50                     51
                      A                      A                      A
 Frequencies --   1226.0856              1244.7728              1267.4658
 Red. masses --      1.2019                 1.2100                 1.1925
 Frc consts  --      1.0645                 1.1046                 1.1287
 IR Inten    --     20.0077                34.1569                40.4659

                     52                     53                     54
                      A                      A                      A
 Frequencies --   1274.9828              1310.0969              1336.3750
 Red. masses --      1.2734                 1.2062                 1.2981
 Frc consts  --      1.2196                 1.2197                 1.3659
 IR Inten    --     27.5954                 8.7241                12.1561

                     55                     56                     57
                      A                      A                      A
 Frequencies --   1342.6444              1372.8431              1384.6104
 Red. masses --      1.1758                 1.1856                 1.1994
 Frc consts  --      1.2489                 1.3165                 1.3548
 IR Inten    --     76.4598                32.5622                 2.9388

                     58                     59                     60
                      A                      A                      A
 Frequencies --   1389.7954              1411.3606              1417.2837
 Red. masses --      1.2630                 1.2922                 1.2435
 Frc consts  --      1.4373                 1.5165                 1.4717
 IR Inten    --     42.9439                26.5172                11.4737

                     61                     62                     63
                      A                      A                      A
 Frequencies --   1434.3816              1464.4872              1474.6696
 Red. masses --      1.2592                 1.5678                 1.5601
 Frc consts  --      1.5264                 1.9811                 1.9989
 IR Inten    --     16.1258                62.2738                 2.2127

                     64                     65                     66
                      A                      A                      A
 Frequencies --   1512.2650              1518.9445              1537.1140
 Red. masses --      1.4464                 1.3536                 1.0870
 Frc consts  --      1.9490                 1.8401                 1.5131
 IR Inten    --     16.8963                80.3057                 6.9223

                     67                     68                     69
                      A                      A                      A
 Frequencies --   1724.1091              1729.8292              2919.5439
 Red. masses --      1.0799                 1.0761                 1.0818
 Frc consts  --      1.8913                 1.8972                 5.4330
 IR Inten    --     81.2744                61.9130                51.5382

                     70                     71                     72
                      A                      A                      A
 Frequencies --   2989.6044              3013.2549              3021.9855
 Red. masses --      1.0842                 1.0851                 1.0633
 Frc consts  --      5.7094                 5.8046                 5.7215
 IR Inten    --     60.4642                89.0949                44.1470

                     73                     74                     75
                      A                      A                      A
 Frequencies --   3068.3954              3092.0964              3110.2544
 Red. masses --      1.0828                 1.1016                 1.0867
 Frc consts  --      6.0068                 6.2054                 6.1935
 IR Inten    --     11.9238                36.8172                13.2846

                     76                     77                     78
                      A                      A                      A
 Frequencies --   3362.2052              3514.5072              3571.9686
 Red. masses --      1.0679                 1.0642                 1.0588
 Frc consts  --      7.1126                 7.7446                 7.9594
 IR Inten    --    653.3889               185.1483               477.1833

                     79                     80                     81
                      A                      A                      A
 Frequencies --   3611.8980              3625.9363              3731.2339
 Red. masses --      1.0548                 1.0640                 1.0660
 Frc consts  --      8.1073                 8.2423                 8.7444
 IR Inten    --    246.0540                88.1993                16.5790

                     82                     83                     84
                      A                      A                      A
 Frequencies --   3764.0875              3799.9425              3803.1381
 Red. masses --      1.0665                 1.0721                 1.0711
 Frc consts  --      8.9032                 9.1208                 9.1276
 IR Inten    --     28.0119                69.3421                67.5353

 - Thermochemistry -
 -------------------
 Temperature   298.150 Kelvin.  Pressure   1.00000 Atm.
 Atom     1 has atomic number  6 and mass  12.00000

 Molecular mass:   216.08452 amu.
 Principal axes and moments of inertia in atomic units:
                           1         2         3
     Eigenvalues --  2039.456473963.735095223.66449
           X            0.99995  -0.00923  -0.00338
           Y            0.00922   0.99995  -0.00378
           Z            0.00342   0.00375   0.99999
 This molecule is an asymmetric top.
 Rotational symmetry number  1.
 Warning -- assumption of classical behavior for rotation
           may cause significant error
 Rotational temperatures (Kelvin)      0.04247     0.02185     0.01658
 Rotational constants (GHZ):           0.88491     0.45531     0.34549
    1 imaginary frequencies ignored.
 Zero-point vibrational energy     651509.9 (Joules/Mol)
                                  155.71461 (Kcal/Mol)
 Warning -- explicit consideration of  28 degrees of freedom as
           vibrations may cause significant error
 Vibrational temperatures:     53.97    83.47   111.98   157.45   186.29
          (Kelvin)            228.90   248.27   264.19   276.25   307.23
                              328.32   349.86   394.88   399.00   405.73
                              444.05   464.21   489.26   526.48   562.56
                              597.84   615.74   650.04   701.74   740.80
                              784.47   816.18   860.28   928.17   968.50
                             1023.05  1124.61  1160.39  1182.21  1224.89
                             1296.89  1366.25  1478.67  1511.74  1533.53
                             1561.55  1586.13  1603.59  1633.39  1641.38
                             1656.37  1668.41  1764.06  1790.95  1823.60
                             1834.41  1884.93  1922.74  1931.76  1975.21
                             1992.14  1999.60  2030.63  2039.15  2063.75
                             2107.07  2121.72  2175.81  2185.42  2211.56
                             2480.61  2488.84  4200.57  4301.37  4335.40
                             4347.96  4414.73  4448.83  4474.96  4837.46
                             5056.59  5139.26  5196.71  5216.91  5368.41
                             5415.68  5467.26  5471.86

 Zero-point correction=                           0.248147 (Hartree/Particle)
 Thermal correction to Energy=                    0.264953
 Thermal correction to Enthalpy=                  0.265897
 Thermal correction to Gibbs Free Energy=         0.204879
 Sum of electronic and zero-point Energies=           -839.747112
 Sum of electronic and thermal Energies=              -839.730306
 Sum of electronic and thermal Enthalpies=            -839.729362
 Sum of electronic and thermal Free Energies=         -839.790381

                     E (Thermal)             CV                S
                      KCal/Mol        Cal/Mol-Kelvin    Cal/Mol-Kelvin
 Total                  166.261             62.693            128.425
 Electronic               0.000              0.000              0.000
 Translational            0.889              2.981             42.015
 Rotational               0.889              2.981             32.113
 Vibrational            164.483             56.732             54.298
 Vibration     1          0.594              1.982              5.386
 Vibration     2          0.596              1.974              4.524
 Vibration     3          0.599              1.964              3.945
 Vibration     4          0.606              1.942              3.279
 Vibration     5          0.612              1.924              2.954
 Vibration     6          0.621              1.892              2.561
 Vibration     7          0.626              1.876              2.407
 Vibration     8          0.631              1.862              2.291
 Vibration     9          0.634              1.851              2.208
 Vibration    10          0.644              1.820              2.013
 Vibration    11          0.651              1.798              1.893
 Vibration    12          0.659              1.774              1.780
 Vibration    13          0.677              1.721              1.568
 Vibration    14          0.678              1.715              1.550
 Vibration    15          0.681              1.707              1.522
 Vibration    16          0.698              1.657              1.370
 Vibration    17          0.708              1.630              1.297
 Vibration    18          0.720              1.595              1.212
 Vibration    19          0.739              1.542              1.097
 Vibration    20          0.759              1.489              0.996
 Vibration    21          0.779              1.437              0.907
 Vibration    22          0.789              1.409              0.865
 Vibration    23          0.810              1.357              0.790
 Vibration    24          0.844              1.277              0.690
 Vibration    25          0.870              1.217              0.622
 Vibration    26          0.900              1.150              0.554
 Vibration    27          0.923              1.102              0.510
 Vibration    28          0.956              1.036              0.453

 Normal termination of Gaussian 09 at Tue Jan 24 19:16:09 2017.
