 Gaussian 09, Revision D.01,
 Gaussian 09:  ES64L-G09RevD.01 24-Apr-2013

 ------------------------------------------------------
 # opt=(modredundant,MaxCycle=1000) freq B3LYP/6-31G(d)
 ------------------------------------------------------

 -------------------------------------------------------------------
 ./opt_IRC/b3lyp/boats/6/glo_2w_alpha_ircr_boat6_B3LYP_631Gd_opt.out
 -------------------------------------------------------------------
 Symbolic Z-matrix:
 Charge =  0 Multiplicity = 1

 SCF Done:  E(RB3LYP) =  -839.979790003     A.U. after   13 cycles
 SCF Done:  E(RB3LYP) =  -839.987598480     A.U. after   11 cycles
 SCF Done:  E(RB3LYP) =  -839.989052154     A.U. after   11 cycles
 SCF Done:  E(RB3LYP) =  -839.990103723     A.U. after   11 cycles
 SCF Done:  E(RB3LYP) =  -839.991436533     A.U. after   11 cycles
 SCF Done:  E(RB3LYP) =  -839.990344223     A.U. after   13 cycles
 SCF Done:  E(RB3LYP) =  -839.992807756     A.U. after   11 cycles
 SCF Done:  E(RB3LYP) =  -839.993464558     A.U. after   10 cycles
 SCF Done:  E(RB3LYP) =  -839.994048694     A.U. after   11 cycles
 SCF Done:  E(RB3LYP) =  -839.994269325     A.U. after   10 cycles
 SCF Done:  E(RB3LYP) =  -839.996500401     A.U. after    9 cycles
 SCF Done:  E(RB3LYP) =  -839.996516773     A.U. after    8 cycles
 SCF Done:  E(RB3LYP) =  -839.996528898     A.U. after    9 cycles
 SCF Done:  E(RB3LYP) =  -839.996536830     A.U. after    8 cycles
 SCF Done:  E(RB3LYP) =  -839.996541587     A.U. after    8 cycles
 SCF Done:  E(RB3LYP) =  -839.996543836     A.U. after    7 cycles
 SCF Done:  E(RB3LYP) =  -839.996545721     A.U. after    7 cycles
 SCF Done:  E(RB3LYP) =  -839.996546566     A.U. after    7 cycles
 SCF Done:  E(RB3LYP) =  -839.996546713     A.U. after    7 cycles
 Optimization completed.
    -- Stationary point found.
 Normal termination of Gaussian 09 at Tue Jan 24 19:13:11 2017.

 --------------------------------------------------------------------
 #N Geom=AllCheck Guess=TCheck SCRF=Check GenChk RB3LYP/6-31G(d) Freq
 --------------------------------------------------------------------

 Structure from the checkpoint file:  "/home/iawad/Gau-29971.chk"
 -------------------------------------------------------------------
 ./opt_IRC/b3lyp/boats/6/glo_2w_alpha_ircr_boat6_B3LYP_631Gd_opt.out
 -------------------------------------------------------------------
 Charge =  0 Multiplicity = 1

                         Standard orientation:
 ---------------------------------------------------------------------
 Center     Atomic      Atomic             Coordinates (Angstroms)
 Number     Number       Type             X           Y           Z
 ---------------------------------------------------------------------
      1          6           0        0.333038    1.001748    0.263296
      2          6           0        2.259036   -0.610855   -0.297139
      3          6           0        1.750027    0.859089   -0.323607
      4          6           0        1.231768   -1.578211    0.307345
      5          1           0        1.544153   -2.605286    0.069352
      6          1           0        3.157056   -0.646090    0.326671
      7          1           0        0.392079    0.879022    1.351503
      8          1           0        1.742444    1.187014   -1.369968
      9          6           0       -0.164818   -1.365228   -0.286674
     10          8           0       -0.565783    0.018883   -0.274195
     11          6           0       -0.250906    2.372498   -0.032653
     12          1           0        0.499845    3.121454    0.244146
     13          1           0       -0.459871    2.461052   -1.109512
     14          8           0       -1.451956    2.548782    0.733561
     15          1           0       -1.712938    3.479760    0.658945
     16          8           0        1.196141   -1.367309    1.709575
     17          1           0        0.336382   -1.735549    1.990488
     18          8           0        2.687855   -1.056075   -1.581376
     19          1           0        1.935825   -0.998585   -2.191952
     20          8           0        2.638051    1.758843    0.333658
     21          1           0        2.739740    1.445357    1.247876
     22          8           0       -3.614923   -1.597709   -0.109444
     23          1           0       -1.974292   -1.954166    0.236704
     24          1           0       -3.614658   -0.640133   -0.374395
     25          1           0       -4.103177   -1.626545    0.726877
     26          8           0       -1.026045   -2.117457    0.501924
     27          1           0       -0.203079   -1.680140   -1.341356
     28          8           0       -3.127466    0.953558   -0.927746
     29          1           0       -2.862033    1.515140   -0.170690
     30          1           0       -2.253330    0.591317   -1.165741
 ---------------------------------------------------------------------

 SCF Done:  E(RB3LYP) =  -839.996546713     A.U. after    1 cycles

 The electronic state is 1-A.
 Alpha  occ. eigenvalues --  -19.17952 -19.16988 -19.16157 -19.15766 -19.14993
 Alpha  occ. eigenvalues --  -19.14401 -19.14148 -19.14129 -10.29335 -10.25207
 Alpha  occ. eigenvalues --  -10.25090 -10.25058 -10.24608 -10.24058  -1.07589
 Alpha  occ. eigenvalues --   -1.04677  -1.03956  -1.02799  -1.02048  -1.00876
 Alpha  occ. eigenvalues --   -1.00120  -0.98927  -0.78906  -0.77102  -0.70121
 Alpha  occ. eigenvalues --   -0.66015  -0.63342  -0.57813  -0.55907  -0.54067
 Alpha  occ. eigenvalues --   -0.53295  -0.52742  -0.52658  -0.50598  -0.50239
 Alpha  occ. eigenvalues --   -0.47434  -0.46179  -0.45703  -0.44646  -0.43587
 Alpha  occ. eigenvalues --   -0.42762  -0.40963  -0.39912  -0.38603  -0.37421
 Alpha  occ. eigenvalues --   -0.37031  -0.36456  -0.35316  -0.34409  -0.33277
 Alpha  occ. eigenvalues --   -0.30952  -0.30135  -0.29918  -0.29523  -0.28892
 Alpha  occ. eigenvalues --   -0.28359  -0.26796  -0.25967
 Alpha virt. eigenvalues --    0.03979   0.04880   0.06830   0.07398   0.09309
 Alpha virt. eigenvalues --    0.09484   0.11607   0.13067   0.13392   0.13599
 Alpha virt. eigenvalues --    0.15117   0.15705   0.16521   0.17137   0.18856

 Mulliken charges:
               1
     1  C    0.138309
     2  C    0.107484
     3  C    0.084099
     4  C    0.079535
     5  H    0.148928
     6  H    0.162294
     7  H    0.153652
     8  H    0.141280
     9  C    0.335695
    10  O   -0.555972
    11  C   -0.073284
    12  H    0.166157
    13  H    0.136156
    14  O   -0.627836
    15  H    0.408560
    16  O   -0.654464
    17  H    0.419149
    18  O   -0.627059
    19  H    0.391805
    20  O   -0.625157
    21  H    0.398643
    22  O   -0.818279
    23  H    0.441820
    24  H    0.427401
    25  H    0.395187
    26  O   -0.676213
    27  H    0.112647
    28  O   -0.827644
    29  H    0.418078
    30  H    0.419028
 Sum of Mulliken charges =   0.00000

 Dipole moment (field-independent basis, Debye):
    X=             -1.0701    Y=              2.8734    Z=              1.1016  Tot=              3.2581
 Quadrupole moment (field-independent basis, Debye-Ang):
   XX=            -94.9882   YY=            -78.9450   ZZ=            -80.8519
   XY=             -3.4901   XZ=             -5.1091   YZ=              1.3946

  Exact polarizability: 102.140   0.501  98.282  -1.132   1.028  83.353
 Approx polarizability: 130.174   2.916 126.765   0.338   1.481 128.238

 ******    1 imaginary frequencies (negative Signs) ******

                      1                      2                      3
                      A                      A                      A
 Frequencies --    -59.8066                41.1998                56.3206
 Red. masses --      6.4429                 4.9352                 5.9634
 Frc consts  --      0.0136                 0.0049                 0.0111
 IR Inten    --      1.4152                 7.5042                 1.7140

                      4                      5                      6
                      A                      A                      A
 Frequencies --     79.1103               104.6259               126.1255
 Red. masses --      6.4423                 5.6185                 5.2636
 Frc consts  --      0.0238                 0.0362                 0.0493
 IR Inten    --      0.9908                 2.5280                11.7094

                      7                      8                      9
                      A                      A                      A
 Frequencies --    140.7340               188.3876               199.4939
 Red. masses --      4.3561                 5.2638                 5.0904
 Frc consts  --      0.0508                 0.1101                 0.1194
 IR Inten    --      0.8733                 1.8965                18.6663

                     10                     11                     12
                      A                      A                      A
 Frequencies --    210.8145               233.3706               256.4284
 Red. masses --      4.5903                 3.3348                 1.6400
 Frc consts  --      0.1202                 0.1070                 0.0635
 IR Inten    --      6.1564                18.0574                51.9603

                     13                     14                     15
                      A                      A                      A
 Frequencies --    261.2911               282.9718               289.9127
 Red. masses --      1.4676                 1.9905                 2.4334
 Frc consts  --      0.0590                 0.0939                 0.1205
 IR Inten    --     54.6499                46.6936                55.4512

                     16                     17                     18
                      A                      A                      A
 Frequencies --    297.3109               311.8227               348.3278
 Red. masses --      2.8577                 1.7637                 1.9825
 Frc consts  --      0.1488                 0.1010                 0.1417
 IR Inten    --     33.9901                30.3068                24.4919

                     19                     20                     21
                      A                      A                      A
 Frequencies --    369.6147               380.1935               385.4337
 Red. masses --      2.2591                 1.4465                 1.6334
 Frc consts  --      0.1818                 0.1232                 0.1430
 IR Inten    --     84.5756                94.5810                38.1925

                     22                     23                     24
                      A                      A                      A
 Frequencies --    416.1405               429.2300               459.8070
 Red. masses --      4.7722                 2.5349                 1.4899
 Frc consts  --      0.4869                 0.2752                 0.1856
 IR Inten    --      3.9551                23.0920                62.6138

                     25                     26                     27
                      A                      A                      A
 Frequencies --    481.8527               516.4740               540.2059
 Red. masses --      2.8979                 5.4377                 2.3142
 Frc consts  --      0.3964                 0.8546                 0.3979
 IR Inten    --     14.2425                26.8063                40.0552

                     28                     29                     30
                      A                      A                      A
 Frequencies --    562.0873               591.1958               661.5973
 Red. masses --      1.8141                 2.8900                 1.0903
 Frc consts  --      0.3377                 0.5951                 0.2812
 IR Inten    --    103.9628                 8.2507                30.1511

                     31                     32                     33
                      A                      A                      A
 Frequencies --    690.3204               699.6864               799.4714
 Red. masses --      4.1401                 1.0896                 1.0806
 Frc consts  --      1.1624                 0.3143                 0.4069
 IR Inten    --      9.6882               156.0513               145.6601

                     34                     35                     36
                      A                      A                      A
 Frequencies --    811.1602               842.2402               890.7204
 Red. masses --      3.5435                 4.6167                 2.4293
 Frc consts  --      1.3737                 1.9295                 1.1356
 IR Inten    --     64.8640                 8.5671                27.2489

                     37                     38                     39
                      A                      A                      A
 Frequencies --    935.2768               952.0278              1022.3049
 Red. masses --      2.7513                 1.0859                 3.5162
 Frc consts  --      1.4180                 0.5799                 2.1652
 IR Inten    --     86.7857               189.0323                39.2764

                     40                     41                     42
                      A                      A                      A
 Frequencies --   1048.4650              1057.4558              1078.3351
 Red. masses --      4.4682                 3.3599                 2.9319
 Frc consts  --      2.8940                 2.2136                 2.0087
 IR Inten    --     94.9244               127.2753               173.4372

                     43                     44                     45
                      A                      A                      A
 Frequencies --   1086.2616              1096.7667              1118.2852
 Red. masses --      4.2137                 3.6815                 3.8271
 Frc consts  --      2.9294                 2.6092                 2.8199
 IR Inten    --     13.5525                98.3427                75.4772

                     46                     47                     48
                      A                      A                      A
 Frequencies --   1136.4788              1151.7897              1167.1968
 Red. masses --      3.3326                 2.2154                 4.1084
 Frc consts  --      2.5360                 1.7316                 3.2977
 IR Inten    --      1.5254                 6.5163                67.3118

                     49                     50                     51
                      A                      A                      A
 Frequencies --   1216.5989              1232.0202              1265.5354
 Red. masses --      1.2200                 1.1971                 1.1580
 Frc consts  --      1.0639                 1.0705                 1.0927
 IR Inten    --      4.9815                22.9690                37.3889

                     52                     53                     54
                      A                      A                      A
 Frequencies --   1275.0488              1297.2306              1326.0964
 Red. masses --      1.2340                 1.2598                 1.3089
 Frc consts  --      1.1820                 1.2491                 1.3561
 IR Inten    --     45.1890                32.5715                 5.4766

                     55                     56                     57
                      A                      A                      A
 Frequencies --   1333.4708              1357.9751              1372.3405
 Red. masses --      1.2390                 1.3148                 1.2793
 Frc consts  --      1.2980                 1.4285                 1.4195
 IR Inten    --     85.2338                 5.9938                19.4725

                     58                     59                     60
                      A                      A                      A
 Frequencies --   1390.3021              1400.3171              1424.9227
 Red. masses --      1.2951                 1.2719                 1.3024
 Frc consts  --      1.4750                 1.4694                 1.5580
 IR Inten    --      4.5772                18.8699                 1.6217

                     61                     62                     63
                      A                      A                      A
 Frequencies --   1433.2615              1439.1194              1467.4507
 Red. masses --      1.2381                 1.2103                 1.5937
 Frc consts  --      1.4985                 1.4769                 2.0220
 IR Inten    --     23.6433                57.6237                80.0664

                     64                     65                     66
                      A                      A                      A
 Frequencies --   1474.1959              1537.0864              1543.0784
 Red. masses --      1.5392                 1.0829                 1.3048
 Frc consts  --      1.9709                 1.5074                 1.8305
 IR Inten    --      3.5547                 5.2525                39.6154

                     67                     68                     69
                      A                      A                      A
 Frequencies --   1753.1201              1785.2265              3000.3971
 Red. masses --      1.0755                 1.0733                 1.0840
 Frc consts  --      1.9476                 2.0154                 5.7498
 IR Inten    --    157.6964               173.8428                60.4401

                     70                     71                     72
                      A                      A                      A
 Frequencies --   3018.9536              3035.0109              3059.6656
 Red. masses --      1.0653                 1.0853                 1.0835
 Frc consts  --      5.7204                 5.8902                 5.9762
 IR Inten    --     31.0602                60.2291                 2.9611

                     73                     74                     75
                      A                      A                      A
 Frequencies --   3074.1065              3096.4761              3101.2073
 Red. masses --      1.0853                 1.0991                 1.0872
 Frc consts  --      6.0430                 6.2087                 6.1606
 IR Inten    --     34.6126                21.6254                26.9817

                     76                     77                     78
                      A                      A                      A
 Frequencies --   3230.8447              3368.9469              3626.8480
 Red. masses --      1.0696                 1.0623                 1.0543
 Frc consts  --      6.5784                 7.1038                 8.1711
 IR Inten    --    917.4147               862.1752               184.8436

                     79                     80                     81
                      A                      A                      A
 Frequencies --   3653.8970              3697.4838              3720.4719
 Red. masses --      1.0646                 1.0701                 1.0661
 Frc consts  --      8.3740                 8.6194                 8.6942
 IR Inten    --     65.7223               161.3148                17.9344

                     82                     83                     84
                      A                      A                      A
 Frequencies --   3734.4383              3753.0385              3798.0222
 Red. masses --      1.0662                 1.0664                 1.0672
 Frc consts  --      8.7609                 8.8503                 9.0699
 IR Inten    --      7.4287                28.2956                42.4370

 - Thermochemistry -
 -------------------
 Temperature   298.150 Kelvin.  Pressure   1.00000 Atm.
 Atom     1 has atomic number  6 and mass  12.00000

 Molecular mass:   216.08452 amu.
 Principal axes and moments of inertia in atomic units:
                           1         2         3
     Eigenvalues --  2396.436283603.029554988.62206
           X            1.00000  -0.00081  -0.00008
           Y            0.00081   1.00000  -0.00020
           Z            0.00008   0.00020   1.00000
 This molecule is an asymmetric top.
 Rotational symmetry number  1.
 Warning -- assumption of classical behavior for rotation
           may cause significant error
 Rotational temperatures (Kelvin)      0.03614     0.02404     0.01736
 Rotational constants (GHZ):           0.75309     0.50090     0.36177
    1 imaginary frequencies ignored.
 Zero-point vibrational energy     652566.1 (Joules/Mol)
                                  155.96704 (Kcal/Mol)
 Warning -- explicit consideration of  28 degrees of freedom as
           vibrations may cause significant error
 Vibrational temperatures:     59.28    81.03   113.82   150.53   181.47
          (Kelvin)            202.48   271.05   287.03   303.31   335.77
                              368.94   375.94   407.13   417.12   427.76
                              448.64   501.17   531.79   547.01   554.55
                              598.73   617.57   661.56   693.28   743.09
                              777.23   808.72   850.60   951.89   993.22
                             1006.69  1150.26  1167.08  1211.79  1281.55
                             1345.65  1369.75  1470.87  1508.51  1521.44
                             1551.48  1562.89  1578.00  1608.96  1635.14
                             1657.17  1679.33  1750.41  1772.60  1820.82
                             1834.51  1866.42  1907.95  1918.56  1953.82
                             1974.49  2000.33  2014.74  2050.14  2062.14
                             2070.57  2111.33  2121.04  2211.52  2220.14
                             2522.35  2568.54  4316.90  4343.60  4366.70
                             4402.17  4422.95  4455.13  4461.94  4648.46
                             4847.16  5218.22  5257.14  5319.85  5352.92
                             5373.02  5399.78  5464.50

 Zero-point correction=                           0.248549 (Hartree/Particle)
 Thermal correction to Energy=                    0.265076
 Thermal correction to Enthalpy=                  0.266021
 Thermal correction to Gibbs Free Energy=         0.205639
 Sum of electronic and zero-point Energies=           -839.747997
 Sum of electronic and thermal Energies=              -839.731470
 Sum of electronic and thermal Enthalpies=            -839.730526
 Sum of electronic and thermal Free Energies=         -839.790908

                     E (Thermal)             CV                S
                      KCal/Mol        Cal/Mol-Kelvin    Cal/Mol-Kelvin
 Total                  166.338             62.254            127.085
 Electronic               0.000              0.000              0.000
 Translational            0.889              2.981             42.015
 Rotational               0.889              2.981             32.132
 Vibrational            164.560             56.292             52.937
 Vibration     1          0.594              1.981              5.201
 Vibration     2          0.596              1.975              4.582
 Vibration     3          0.600              1.963              3.913
 Vibration     4          0.605              1.946              3.366
 Vibration     5          0.611              1.927              3.004
 Vibration     6          0.615              1.913              2.794
 Vibration     7          0.633              1.856              2.244
 Vibration     8          0.638              1.841              2.138
 Vibration     9          0.643              1.824              2.037
 Vibration    10          0.654              1.790              1.853
 Vibration    11          0.666              1.752              1.686
 Vibration    12          0.669              1.744              1.653
 Vibration    13          0.682              1.705              1.516
 Vibration    14          0.686              1.692              1.474
 Vibration    15          0.691              1.679              1.432
 Vibration    16          0.700              1.651              1.353
 Vibration    17          0.726              1.579              1.174
 Vibration    18          0.742              1.535              1.081
 Vibration    19          0.750              1.512              1.038
 Vibration    20          0.754              1.501              1.018
 Vibration    21          0.779              1.435              0.905
 Vibration    22          0.791              1.407              0.861
 Vibration    23          0.818              1.339              0.767
 Vibration    24          0.838              1.290              0.705
 Vibration    25          0.871              1.214              0.618
 Vibration    26          0.895              1.161              0.565
 Vibration    27          0.918              1.113              0.520
 Vibration    28          0.949              1.051              0.465

 Normal termination of Gaussian 09 at Tue Jan 24 19:16:35 2017.
