 Gaussian 09, Revision E.01,
 Gaussian 09:  ES64L-G09RevE.01 30-Nov-2015

 ---------------------------------------
 # opt=maxcycle=1000 freq b3lyp/6-31g(d)
 ---------------------------------------

 ------------------------
 boat3_Beta_B3LYP_6-31G_d
 ------------------------
 Symbolic Z-matrix:
 Charge =  0 Multiplicity = 1

 SCF Done:  E(RB3LYP) =  -839.850160684     A.U. after   14 cycles
 SCF Done:  E(RB3LYP) =  -839.895381795     A.U. after   13 cycles
 SCF Done:  E(RB3LYP) =  -839.918141859     A.U. after   13 cycles
 SCF Done:  E(RB3LYP) =  -839.923420143     A.U. after   12 cycles
 SCF Done:  E(RB3LYP) =  -839.926609485     A.U. after   13 cycles
 SCF Done:  E(RB3LYP) =  -839.922871699     A.U. after   13 cycles
 SCF Done:  E(RB3LYP) =  -839.931474397     A.U. after   11 cycles
 SCF Done:  E(RB3LYP) =  -839.932707415     A.U. after   12 cycles
 SCF Done:  E(RB3LYP) =  -839.935796275     A.U. after   12 cycles
 SCF Done:  E(RB3LYP) =  -839.936830400     A.U. after   12 cycles
 SCF Done:  E(RB3LYP) =  -840.002791917     A.U. after    9 cycles
 SCF Done:  E(RB3LYP) =  -840.002795672     A.U. after    8 cycles
 SCF Done:  E(RB3LYP) =  -840.002800339     A.U. after    9 cycles
 SCF Done:  E(RB3LYP) =  -840.002802199     A.U. after    7 cycles
 SCF Done:  E(RB3LYP) =  -840.002804328     A.U. after    7 cycles
 SCF Done:  E(RB3LYP) =  -840.002805435     A.U. after    7 cycles
 SCF Done:  E(RB3LYP) =  -840.002806874     A.U. after    7 cycles
 SCF Done:  E(RB3LYP) =  -840.002807979     A.U. after    7 cycles
 SCF Done:  E(RB3LYP) =  -840.002808553     A.U. after    7 cycles
 Optimization completed.
    -- Stationary point found.
 Normal termination of Gaussian 09 at Wed Jan 11 00:26:44 2017.

 --------------------------------------------------------------------
 #N Geom=AllCheck Guess=TCheck SCRF=Check GenChk RB3LYP/6-31G(d) Freq
 --------------------------------------------------------------------

 Structure from the checkpoint file:  "/scratch/10450697.yak.local/Gau-29732.chk"
 ------------------------
 boat3_Beta_B3LYP_6-31G_d
 ------------------------
 Charge =  0 Multiplicity = 1

                         Standard orientation:
 ---------------------------------------------------------------------
 Center     Atomic      Atomic             Coordinates (Angstroms)
 Number     Number       Type             X           Y           Z
 ---------------------------------------------------------------------
      1          6           0        1.420709    0.752139   -0.216523
      2          6           0        1.012141   -1.703196   -0.176686
      3          8           0       -0.642062   -0.149656    0.807627
      4          6           0       -0.462876   -1.256909   -0.114430
      5          6           0        0.103192    1.051977    0.520741
      6          6           0        1.955076   -0.586066    0.273030
      7          1           0       -1.056855   -2.052875    0.350207
      8          1           0        1.970978   -0.574156    1.375170
      9          1           0        1.236890   -1.933321   -1.226438
     10          1           0        0.378641    1.456735    1.504142
     11          1           0        1.243113    0.692923   -1.299897
     12          6           0       -0.750178    2.083812   -0.226009
     13          1           0       -1.694319    2.265413    0.304521
     14          1           0       -0.984796    1.715713   -1.227063
     15          8           0       -0.891580   -0.940069   -1.392248
     16          8           0       -0.005270    3.299678   -0.402720
     17          1           0       -0.024681    3.781524    0.439235
     18          8           0        1.148933   -2.863758    0.635794
     19          1           0        2.086426   -3.113847    0.597847
     20          8           0        3.249698   -0.864025   -0.238183
     21          1           0        3.755698   -0.039327   -0.137585
     22          8           0        2.399797    1.747494    0.064953
     23          1           0        2.033479    2.576196   -0.293242
     24          8           0       -3.304074    0.186654    1.409705
     25          1           0       -3.691681   -0.471744   -0.187131
     26          1           0       -2.326357    0.079369    1.335512
     27          1           0       -3.558564   -0.300170    2.207572
     28          8           0       -3.601668   -0.853975   -1.095263
     29          1           0       -3.983026   -1.742450   -1.040154
     30          1           0       -1.883510   -0.889278   -1.380751
 ---------------------------------------------------------------------

 SCF Done:  E(RB3LYP) =  -840.002808553     A.U. after    1 cycles

 The electronic state is 1-A.
 Alpha  occ. eigenvalues --  -19.17243 -19.17090 -19.15893 -19.15051 -19.15004
 Alpha  occ. eigenvalues --  -19.14376 -19.14200 -19.13739 -10.28667 -10.24616
 Alpha  occ. eigenvalues --  -10.23904 -10.23696 -10.23244 -10.23121  -1.06962
 Alpha  occ. eigenvalues --   -1.04007  -1.03212  -1.01972  -1.01801  -1.00754
 Alpha  occ. eigenvalues --   -1.00339  -0.99342  -0.78243  -0.76568  -0.69172
 Alpha  occ. eigenvalues --   -0.63896  -0.62815  -0.56371  -0.55499  -0.54634
 Alpha  occ. eigenvalues --   -0.54114  -0.52835  -0.52037  -0.50914  -0.48549
 Alpha  occ. eigenvalues --   -0.47398  -0.44993  -0.44673  -0.43273  -0.42375
 Alpha  occ. eigenvalues --   -0.41708  -0.40887  -0.40432  -0.38902  -0.37154
 Alpha  occ. eigenvalues --   -0.36859  -0.35349  -0.35043  -0.33249  -0.32372
 Alpha  occ. eigenvalues --   -0.31702  -0.30975  -0.29974  -0.29257  -0.27500
 Alpha  occ. eigenvalues --   -0.26908  -0.26628  -0.25509
 Alpha virt. eigenvalues --    0.04033   0.04811   0.07859   0.08343   0.09794
 Alpha virt. eigenvalues --    0.10983   0.11764   0.13418   0.13766   0.14710
 Alpha virt. eigenvalues --    0.15502   0.16286   0.17036   0.17907   0.19319

 Mulliken charges:
               1
     1  C    0.073504
     2  C    0.134955
     3  O   -0.553478
     4  C    0.295220
     5  C    0.128656
     6  C    0.116414
     7  H    0.138178
     8  H    0.127947
     9  H    0.158784
    10  H    0.133735
    11  H    0.151949
    12  C   -0.091177
    13  H    0.152991
    14  H    0.184374
    15  O   -0.652676
    16  O   -0.621214
    17  H    0.400231
    18  O   -0.649177
    19  H    0.405576
    20  O   -0.660144
    21  H    0.413074
    22  O   -0.668851
    23  H    0.410751
    24  O   -0.822643
    25  H    0.434251
    26  H    0.440362
    27  H    0.397199
    28  O   -0.819057
    29  H    0.394521
    30  H    0.445745
 Sum of Mulliken charges =   0.00000

 Dipole moment (field-independent basis, Debye):
    X=             -1.6247    Y=              0.4808    Z=              3.1233  Tot=              3.5533
 Quadrupole moment (field-independent basis, Debye-Ang):
   XX=            -79.6986   YY=            -77.2425   ZZ=            -83.9899
   XY=              8.7112   XZ=             -5.9843   YZ=              3.3803

  Exact polarizability: 104.226   2.013  99.394  -1.389   1.232  79.169
 Approx polarizability: 131.081   5.208 129.078  -2.799   0.961 121.790

                      1                      2                      3
                      A                      A                      A
 Frequencies --     37.3118                42.3104                43.3114
 Red. masses --      5.5554                 5.4667                 5.7272
 Frc consts  --      0.0046                 0.0058                 0.0063
 IR Inten    --      3.9592                 5.6928                 1.6988

                      4                      5                      6
                      A                      A                      A
 Frequencies --     92.2413               102.9705               128.1976
 Red. masses --      6.0307                 6.9058                 6.6320
 Frc consts  --      0.0302                 0.0431                 0.0642
 IR Inten    --      1.3383                 0.4938                 0.3513

                      7                      8                      9
                      A                      A                      A
 Frequencies --    143.9148               175.5290               199.8905
 Red. masses --      3.8510                 5.0448                 5.9549
 Frc consts  --      0.0470                 0.0916                 0.1402
 IR Inten    --      3.5309                 7.7379                 3.1674

                     10                     11                     12
                      A                      A                      A
 Frequencies --    209.6442               237.6433               263.3765
 Red. masses --      3.7471                 3.6924                 4.0050
 Frc consts  --      0.0970                 0.1229                 0.1637
 IR Inten    --     10.0791                 4.8435                 5.7596

                     13                     14                     15
                      A                      A                      A
 Frequencies --    267.4242               292.9304               295.4922
 Red. masses --      3.6967                 1.2403                 4.6229
 Frc consts  --      0.1558                 0.0627                 0.2378
 IR Inten    --      4.7572                55.0535                40.9787

                     16                     17                     18
                      A                      A                      A
 Frequencies --    306.6138               309.4427               331.1723
 Red. masses --      1.1495                 1.1353                 3.9729
 Frc consts  --      0.0637                 0.0641                 0.2567
 IR Inten    --     54.1585               212.0513                12.5868

                     19                     20                     21
                      A                      A                      A
 Frequencies --    376.9066               388.7339               398.4235
 Red. masses --      1.5280                 1.4183                 1.9681
 Frc consts  --      0.1279                 0.1263                 0.1841
 IR Inten    --     42.9248               150.9751                59.7084

                     22                     23                     24
                      A                      A                      A
 Frequencies --    422.6965               432.6527               456.2786
 Red. masses --      3.6449                 1.2877                 3.3592
 Frc consts  --      0.3837                 0.1420                 0.4120
 IR Inten    --     42.2688               123.8600                12.5749

                     25                     26                     27
                      A                      A                      A
 Frequencies --    479.5376               503.5415               507.3455
 Red. masses --      5.7440                 1.2297                 3.1062
 Frc consts  --      0.7782                 0.1837                 0.4711
 IR Inten    --     22.9138                51.5224                19.2463

                     28                     29                     30
                      A                      A                      A
 Frequencies --    542.2772               575.7236               583.7875
 Red. masses --      4.5988                 1.3518                 2.6967
 Frc consts  --      0.7968                 0.2640                 0.5415
 IR Inten    --     20.0901                56.0537                25.6111

                     31                     32                     33
                      A                      A                      A
 Frequencies --    615.3891               708.7889               767.9306
 Red. masses --      3.4693                 1.1103                 5.0261
 Frc consts  --      0.7741                 0.3286                 1.7463
 IR Inten    --     25.2277               139.7283                67.3751

                     34                     35                     36
                      A                      A                      A
 Frequencies --    874.7690               901.5142               910.2816
 Red. masses --      1.4323                 2.1269                 1.8169
 Frc consts  --      0.6458                 1.0184                 0.8870
 IR Inten    --     45.3479               179.4728                 8.0853

                     37                     38                     39
                      A                      A                      A
 Frequencies --    983.0272              1000.3245              1021.6365
 Red. masses --      1.1060                 2.8285                 4.1073
 Frc consts  --      0.6297                 1.6676                 2.5258
 IR Inten    --    190.5846                14.5343                17.8763

                     40                     41                     42
                      A                      A                      A
 Frequencies --   1042.5665              1047.0390              1055.9855
 Red. masses --      4.3267                 5.1650                 3.5636
 Frc consts  --      2.7709                 3.3362                 2.3413
 IR Inten    --    133.8949               211.2060                14.6485

                     43                     44                     45
                      A                      A                      A
 Frequencies --   1087.6152              1110.6027              1125.4727
 Red. masses --      2.0937                 3.0096                 2.4538
 Frc consts  --      1.4592                 2.1872                 1.8313
 IR Inten    --      8.4868                69.9460                31.4936

                     46                     47                     48
                      A                      A                      A
 Frequencies --   1140.7620              1146.2554              1152.7464
 Red. masses --      3.5357                 4.2672                 2.8706
 Frc consts  --      2.7109                 3.3034                 2.2475
 IR Inten    --     75.9266                17.4444               101.4368

                     49                     50                     51
                      A                      A                      A
 Frequencies --   1193.8681              1241.1357              1264.6680
 Red. masses --      1.5980                 1.2342                 1.1164
 Frc consts  --      1.3420                 1.1202                 1.0521
 IR Inten    --      5.6020                19.7095                50.5818

                     52                     53                     54
                      A                      A                      A
 Frequencies --   1294.1055              1319.5027              1331.5242
 Red. masses --      1.1418                 1.2452                 1.2810
 Frc consts  --      1.1266                 1.2773                 1.3381
 IR Inten    --     27.3339                24.5031                21.6697

                     55                     56                     57
                      A                      A                      A
 Frequencies --   1360.6555              1366.5027              1388.4123
 Red. masses --      1.1470                 1.2944                 1.2281
 Frc consts  --      1.2512                 1.4241                 1.3948
 IR Inten    --      4.1501                69.7008                 1.6511

                     58                     59                     60
                      A                      A                      A
 Frequencies --   1396.2142              1408.1552              1413.1584
 Red. masses --      1.2152                 1.2436                 1.3898
 Frc consts  --      1.3957                 1.4529                 1.6352
 IR Inten    --     64.5384                12.1973                15.1754

                     61                     62                     63
                      A                      A                      A
 Frequencies --   1427.7661              1433.8845              1458.3529
 Red. masses --      1.3479                 1.4336                 1.5154
 Frc consts  --      1.6189                 1.7366                 1.8989
 IR Inten    --     20.8029                46.9559                12.4183

                     64                     65                     66
                      A                      A                      A
 Frequencies --   1479.1953              1529.4906              1542.0339
 Red. masses --      1.5105                 1.3805                 1.0846
 Frc consts  --      1.9473                 1.9028                 1.5195
 IR Inten    --      6.3874                46.0533                 1.6367

                     67                     68                     69
                      A                      A                      A
 Frequencies --   1718.9076              1741.1455              2996.2055
 Red. masses --      1.0744                 1.0733                 1.0824
 Frc consts  --      1.8703                 1.9171                 5.7249
 IR Inten    --     35.4880                63.3286                24.3405

                     70                     71                     72
                      A                      A                      A
 Frequencies --   3031.8252              3044.1803              3052.5940
 Red. masses --      1.0831                 1.0859                 1.0691
 Frc consts  --      5.8655                 5.9293                 5.8696
 IR Inten    --      2.5919                45.5293                25.2128

                     73                     74                     75
                      A                      A                      A
 Frequencies --   3054.1511              3068.9560              3148.5855
 Red. masses --      1.0850                 1.0869                 1.0995
 Frc consts  --      5.9629                 6.0317                 6.4220
 IR Inten    --     46.7352                36.8516                12.1645

                     76                     77                     78
                      A                      A                      A
 Frequencies --   3318.1723              3426.2302              3485.9987
 Red. masses --      1.0672                 1.0620                 1.0590
 Frc consts  --      6.9231                 7.3453                 7.5826
 IR Inten    --    423.9429               967.7795               707.9762

                     79                     80                     81
                      A                      A                      A
 Frequencies --   3686.9531              3713.7166              3737.7125
 Red. masses --      1.0655                 1.0654                 1.0659
 Frc consts  --      8.5335                 8.6573                 8.7737
 IR Inten    --     98.0278                39.4944                28.3517

                     82                     83                     84
                      A                      A                      A
 Frequencies --   3740.6288              3801.6189              3804.5047
 Red. masses --      1.0664                 1.0689                 1.0682
 Frc consts  --      8.7915                 9.1021                 9.1100
 IR Inten    --     21.9848                69.1014                50.3691

 - Thermochemistry -
 -------------------
 Temperature   298.150 Kelvin.  Pressure   1.00000 Atm.
 Atom     1 has atomic number  6 and mass  12.00000

 Molecular mass:   216.08452 amu.
 Principal axes and moments of inertia in atomic units:
                           1         2         3
     Eigenvalues --  2516.952373533.698905137.70835
           X            0.99988   0.01482  -0.00399
           Y           -0.01480   0.99988   0.00519
           Z            0.00407  -0.00513   0.99998
 This molecule is an asymmetric top.
 Rotational symmetry number  1.
 Warning -- assumption of classical behavior for rotation
           may cause significant error
 Rotational temperatures (Kelvin)      0.03441     0.02451     0.01686
 Rotational constants (GHZ):           0.71703     0.51072     0.35127
 Zero-point vibrational energy     653524.4 (Joules/Mol)
                                  156.19607 (Kcal/Mol)
 Warning -- explicit consideration of  31 degrees of freedom as
           vibrations may cause significant error
 Vibrational temperatures:     53.68    60.88    62.32   132.71   148.15
          (Kelvin)            184.45   207.06   252.55   287.60   301.63
                              341.92   378.94   384.76   421.46   425.15
                              441.15   445.22   476.48   542.28   559.30
                              573.24   608.17   622.49   656.48   689.95
                              724.48   729.96   780.22   828.34   839.94
                              885.41  1019.79  1104.88  1258.60  1297.08
                             1309.69  1414.36  1439.24  1469.91  1500.02
                             1506.45  1519.33  1564.83  1597.91  1619.30
                             1641.30  1649.20  1658.54  1717.71  1785.72
                             1819.57  1861.93  1898.47  1915.76  1957.68
                             1966.09  1997.61  2008.84  2026.02  2033.22
                             2054.23  2063.04  2098.24  2128.23  2200.59
                             2218.64  2473.12  2505.12  4310.87  4362.11
                             4379.89  4392.00  4394.24  4415.54  4530.11
                             4774.10  4929.57  5015.57  5304.70  5343.20
                             5377.73  5381.92  5469.67  5473.83

 Zero-point correction=                           0.248914 (Hartree/Particle)
 Thermal correction to Energy=                    0.266339
 Thermal correction to Enthalpy=                  0.267283
 Thermal correction to Gibbs Free Energy=         0.204187
 Sum of electronic and zero-point Energies=           -839.753894
 Sum of electronic and thermal Energies=              -839.736470
 Sum of electronic and thermal Enthalpies=            -839.735525
 Sum of electronic and thermal Free Energies=         -839.798621

                     E (Thermal)             CV                S
                      KCal/Mol        Cal/Mol-Kelvin    Cal/Mol-Kelvin
 Total                  167.130             64.354            132.797
 Electronic               0.000              0.000              0.000
 Translational            0.889              2.981             42.015
 Rotational               0.889              2.981             32.191
 Vibrational            165.353             58.392             58.591
 Vibration     1          0.594              1.982              5.397
 Vibration     2          0.595              1.980              5.148
 Vibration     3          0.595              1.980              5.102
 Vibration     4          0.602              1.955              3.612
 Vibration     5          0.605              1.947              3.397
 Vibration     6          0.611              1.925              2.973
 Vibration     7          0.616              1.909              2.751
 Vibration     8          0.627              1.873              2.375
 Vibration     9          0.638              1.840              2.134
 Vibration    10          0.642              1.826              2.047
 Vibration    11          0.656              1.783              1.820
 Vibration    12          0.670              1.740              1.639
 Vibration    13          0.673              1.733              1.613
 Vibration    14          0.688              1.687              1.457
 Vibration    15          0.690              1.682              1.442
 Vibration    16          0.697              1.661              1.381
 Vibration    17          0.699              1.656              1.365
 Vibration    18          0.714              1.613              1.254
 Vibration    19          0.747              1.519              1.052
 Vibration    20          0.757              1.494              1.005
 Vibration    21          0.765              1.474              0.968
 Vibration    22          0.785              1.421              0.883
 Vibration    23          0.794              1.399              0.850
 Vibration    24          0.815              1.347              0.777
 Vibration    25          0.836              1.295              0.711
 Vibration    26          0.859              1.242              0.649
 Vibration    27          0.863              1.234              0.640
 Vibration    28          0.897              1.157              0.560
 Vibration    29          0.932              1.084              0.493
 Vibration    30          0.941              1.066              0.478
 Vibration    31          0.975              0.999              0.424

 Normal termination of Gaussian 09 at Wed Jan 11 00:45:35 2017.
