 Gaussian 09, Revision E.01,
 Gaussian 09:  ES64L-G09RevE.01 30-Nov-2015

 ---------------------------------------
 # opt=maxcycle=1000 freq b3lyp/6-31g(d)
 ---------------------------------------

 ------------------------
 boat3_Beta_B3LYP_6-31G_d
 ------------------------
 Symbolic Z-matrix:
 Charge =  0 Multiplicity = 1

 SCF Done:  E(RB3LYP) =  -839.843301417     A.U. after   14 cycles
 SCF Done:  E(RB3LYP) =  -839.874137424     A.U. after   14 cycles
 SCF Done:  E(RB3LYP) =  -839.897568338     A.U. after   14 cycles
 SCF Done:  E(RB3LYP) =  -839.914526940     A.U. after   14 cycles
 SCF Done:  E(RB3LYP) =  -839.893565419     A.U. after   13 cycles
 SCF Done:  E(RB3LYP) =  -839.920656576     A.U. after   11 cycles
 SCF Done:  E(RB3LYP) =  -839.932264507     A.U. after   13 cycles
 SCF Done:  E(RB3LYP) =  -839.944279666     A.U. after   13 cycles
 SCF Done:  E(RB3LYP) =  -839.955916180     A.U. after   14 cycles
 SCF Done:  E(RB3LYP) =  -839.959203449     A.U. after   13 cycles
 SCF Done:  E(RB3LYP) =  -839.997774018     A.U. after   10 cycles
 SCF Done:  E(RB3LYP) =  -839.997801351     A.U. after    9 cycles
 SCF Done:  E(RB3LYP) =  -839.997829436     A.U. after   10 cycles
 SCF Done:  E(RB3LYP) =  -839.997840189     A.U. after    9 cycles
 SCF Done:  E(RB3LYP) =  -839.997848087     A.U. after    9 cycles
 SCF Done:  E(RB3LYP) =  -839.997850499     A.U. after    8 cycles
 SCF Done:  E(RB3LYP) =  -839.997851723     A.U. after    8 cycles
 SCF Done:  E(RB3LYP) =  -839.997852012     A.U. after    7 cycles
 SCF Done:  E(RB3LYP) =  -839.997852088     A.U. after    6 cycles
 Optimization completed.
    -- Stationary point found.
 Normal termination of Gaussian 09 at Wed Jan 11 00:02:00 2017.

 --------------------------------------------------------------------
 #N Geom=AllCheck Guess=TCheck SCRF=Check GenChk RB3LYP/6-31G(d) Freq
 --------------------------------------------------------------------

 Structure from the checkpoint file:  "/scratch/10450696.yak.local/Gau-17107.chk"
 ------------------------
 boat3_Beta_B3LYP_6-31G_d
 ------------------------
 Charge =  0 Multiplicity = 1

                         Standard orientation:
 ---------------------------------------------------------------------
 Center     Atomic      Atomic             Coordinates (Angstroms)
 Number     Number       Type             X           Y           Z
 ---------------------------------------------------------------------
      1          6           0       -0.770986   -0.572491    0.153629
      2          6           0       -0.280310    1.853857   -0.064048
      3          8           0        1.446986    0.284608    0.790741
      4          6           0        1.168970    1.330559   -0.155497
      5          6           0        0.604890   -0.892571    0.756928
      6          6           0       -1.172963    0.825940    0.621884
      7          1           0        1.847112    2.132903    0.157778
      8          1           0       -1.026410    0.903441    1.707131
      9          1           0       -0.639224    1.992793   -1.094071
     10          1           0        0.447698   -1.165816    1.807811
     11          1           0       -0.696428   -0.568399   -0.943164
     12          6           0        1.281397   -2.082254    0.063649
     13          1           0        2.307583   -2.188499    0.433166
     14          1           0        1.338658   -1.892576   -1.020558
     15          8           0        1.403109    0.917376   -1.468424
     16          8           0        0.600145   -3.288521    0.361615
     17          1           0       -0.353095   -3.081885    0.355818
     18          8           0       -0.260083    3.090730    0.633274
     19          1           0       -1.181470    3.391825    0.688622
     20          8           0       -2.542731    1.152142    0.312159
     21          1           0       -3.091089    0.670481    0.954053
     22          8           0       -1.692590   -1.577547    0.568941
     23          1           0       -2.408402   -1.582417   -0.109368
     24          8           0        3.898237    0.063882   -0.587813
     25          1           0        2.350571    0.652439   -1.500776
     26          1           0        3.319932   -0.005680    0.198194
     27          1           0        4.597362    0.686678   -0.337477
     28          8           0       -3.515605   -0.869035   -1.378750
     29          1           0       -3.266551    0.039507   -1.108626
     30          1           0       -3.231981   -0.952110   -2.301749
 ---------------------------------------------------------------------

 SCF Done:  E(RB3LYP) =  -839.997852088     A.U. after    1 cycles

 The electronic state is 1-A.
 Alpha  occ. eigenvalues --  -19.18886 -19.17068 -19.17045 -19.16003 -19.15762
 Alpha  occ. eigenvalues --  -19.15687 -19.14865 -19.12392 -10.29276 -10.25190
 Alpha  occ. eigenvalues --  -10.24834 -10.24804 -10.24369 -10.22151  -1.07540
 Alpha  occ. eigenvalues --   -1.05964  -1.03452  -1.02595  -1.02304  -1.01617
 Alpha  occ. eigenvalues --   -1.00375  -0.99676  -0.79616  -0.76903  -0.68610
 Alpha  occ. eigenvalues --   -0.65293  -0.62548  -0.57893  -0.55898  -0.55602
 Alpha  occ. eigenvalues --   -0.54609  -0.53614  -0.52269  -0.51403  -0.49544
 Alpha  occ. eigenvalues --   -0.47335  -0.45796  -0.44642  -0.44144  -0.43221
 Alpha  occ. eigenvalues --   -0.41726  -0.40837  -0.39992  -0.39748  -0.38397
 Alpha  occ. eigenvalues --   -0.37871  -0.37046  -0.34722  -0.33688  -0.32751
 Alpha  occ. eigenvalues --   -0.32088  -0.31858  -0.30767  -0.29894  -0.28858
 Alpha  occ. eigenvalues --   -0.28125  -0.26185  -0.24807
 Alpha virt. eigenvalues --    0.03226   0.05343   0.06448   0.08117   0.08503
 Alpha virt. eigenvalues --    0.11863   0.12062   0.13088   0.13886   0.14666
 Alpha virt. eigenvalues --    0.15258   0.15598   0.16270   0.16792   0.18358

 Mulliken charges:
               1
     1  C    0.049170
     2  C    0.133298
     3  O   -0.544563
     4  C    0.301751
     5  C    0.121246
     6  C    0.083944
     7  H    0.150144
     8  H    0.151299
     9  H    0.149800
    10  H    0.157206
    11  H    0.139174
    12  C   -0.037809
    13  H    0.143122
    14  H    0.130073
    15  O   -0.648622
    16  O   -0.643377
    17  H    0.412241
    18  O   -0.641362
    19  H    0.402278
    20  O   -0.656350
    21  H    0.416113
    22  O   -0.682952
    23  H    0.437909
    24  O   -0.802120
    25  H    0.432507
    26  H    0.426235
    27  H    0.399712
    28  O   -0.804949
    29  H    0.419109
    30  H    0.405773
 Sum of Mulliken charges =   0.00000

 Dipole moment (field-independent basis, Debye):
    X=             -1.2487    Y=              3.1894    Z=             -0.2764  Tot=              3.4362
 Quadrupole moment (field-independent basis, Debye-Ang):
   XX=            -72.7924   YY=            -97.0827   ZZ=            -80.8475
   XY=              2.5572   XZ=              3.7107   YZ=              3.1556

  Exact polarizability: 105.669   0.702  97.273  -0.554   0.089  79.889
 Approx polarizability: 134.225   3.998 127.892   0.254  -0.862 123.537

                      1                      2                      3
                      A                      A                      A
 Frequencies --     35.3613                66.5804                71.8659
 Red. masses --      6.0702                 5.5901                 5.5365
 Frc consts  --      0.0045                 0.0146                 0.0168
 IR Inten    --      2.1795                 1.2222                 6.1438

                      4                      5                      6
                      A                      A                      A
 Frequencies --     83.0962               111.3965               126.6893
 Red. masses --      5.9443                 6.1598                 3.7352
 Frc consts  --      0.0242                 0.0450                 0.0353
 IR Inten    --      0.5299                 2.9764                 7.2212

                      7                      8                      9
                      A                      A                      A
 Frequencies --    154.1597               175.1123               192.3191
 Red. masses --      4.0526                 5.5699                 6.8507
 Frc consts  --      0.0567                 0.1006                 0.1493
 IR Inten    --      5.4873                 5.2007                 5.5264

                     10                     11                     12
                      A                      A                      A
 Frequencies --    200.5100               223.8527               254.3736
 Red. masses --      4.9384                 3.0766                 2.7376
 Frc consts  --      0.1170                 0.0908                 0.1044
 IR Inten    --     13.4721                15.0168                45.3967

                     13                     14                     15
                      A                      A                      A
 Frequencies --    258.1276               261.5723               278.3637
 Red. masses --      2.9248                 1.4261                 2.5300
 Frc consts  --      0.1148                 0.0575                 0.1155
 IR Inten    --     34.6425               109.3082                76.0045

                     16                     17                     18
                      A                      A                      A
 Frequencies --    294.6926               333.0903               351.6410
 Red. masses --      1.8139                 1.2538                 1.4616
 Frc consts  --      0.0928                 0.0820                 0.1065
 IR Inten    --    101.8720                84.4610                62.8115

                     19                     20                     21
                      A                      A                      A
 Frequencies --    361.5349               372.6229               394.9874
 Red. masses --      1.8566                 2.2769                 2.2511
 Frc consts  --      0.1430                 0.1863                 0.2069
 IR Inten    --     37.0177                59.4016                52.8162

                     22                     23                     24
                      A                      A                      A
 Frequencies --    410.0000               447.9436               472.7112
 Red. masses --      4.1272                 3.3439                 5.7016
 Frc consts  --      0.4088                 0.3953                 0.7507
 IR Inten    --     17.3994                 5.2516                18.9601

                     25                     26                     27
                      A                      A                      A
 Frequencies --    501.7925               513.1923               536.4622
 Red. masses --      3.2434                 1.1885                 1.3014
 Frc consts  --      0.4812                 0.1844                 0.2207
 IR Inten    --     18.7423                49.4695                68.7836

                     28                     29                     30
                      A                      A                      A
 Frequencies --    546.0384               581.4081               616.1726
 Red. masses --      3.8195                 4.1099                 3.2027
 Frc consts  --      0.6710                 0.8185                 0.7164
 IR Inten    --     22.0496                13.6873                21.6944

                     31                     32                     33
                      A                      A                      A
 Frequencies --    666.9684               669.9334               758.5964
 Red. masses --      1.1175                 1.0842                 4.3628
 Frc consts  --      0.2929                 0.2867                 1.4792
 IR Inten    --    209.6451               309.8233                50.8562

                     34                     35                     36
                      A                      A                      A
 Frequencies --    821.9877               894.2948               905.0393
 Red. masses --      1.1629                 1.2013                 2.4055
 Frc consts  --      0.4629                 0.5661                 1.1609
 IR Inten    --    122.4925                72.4881                27.0342

                     37                     38                     39
                      A                      A                      A
 Frequencies --    927.1538               993.6421              1015.3276
 Red. masses --      1.9667                 3.0649                 5.2900
 Frc consts  --      0.9961                 1.7829                 3.2131
 IR Inten    --     59.0434                27.9407                47.6386

                     40                     41                     42
                      A                      A                      A
 Frequencies --   1053.6222              1056.7659              1090.4511
 Red. masses --      3.6337                 5.6019                 5.9493
 Frc consts  --      2.3767                 3.6859                 4.1680
 IR Inten    --    119.9607               159.9060                88.1862

                     43                     44                     45
                      A                      A                      A
 Frequencies --   1101.1967              1111.1244              1119.7406
 Red. masses --      2.5783                 3.0488                 2.7085
 Frc consts  --      1.8421                 2.2177                 2.0008
 IR Inten    --     25.2400                86.4256                61.9165

                     46                     47                     48
                      A                      A                      A
 Frequencies --   1130.1492              1150.0788              1166.4747
 Red. masses --      5.2054                 3.3001                 3.1182
 Frc consts  --      3.9172                 2.5718                 2.4998
 IR Inten    --     65.2595                12.8527                29.9014

                     49                     50                     51
                      A                      A                      A
 Frequencies --   1222.4170              1233.7765              1260.6512
 Red. masses --      1.2247                 1.1818                 1.1189
 Frc consts  --      1.0783                 1.0599                 1.0477
 IR Inten    --      3.5251                38.1319                39.4655

                     52                     53                     54
                      A                      A                      A
 Frequencies --   1297.7460              1319.3585              1329.0077
 Red. masses --      1.2632                 1.1817                 1.1935
 Frc consts  --      1.2534                 1.2119                 1.2420
 IR Inten    --     17.6958                49.5330                24.6180

                     55                     56                     57
                      A                      A                      A
 Frequencies --   1346.5668              1374.3711              1393.5838
 Red. masses --      1.1681                 1.3120                 1.2415
 Frc consts  --      1.2479                 1.4601                 1.4205
 IR Inten    --      0.3362                27.3294                 1.6221

                     58                     59                     60
                      A                      A                      A
 Frequencies --   1407.0284              1410.7974              1426.2191
 Red. masses --      1.2678                 1.2990                 1.3832
 Frc consts  --      1.4787                 1.5233                 1.6577
 IR Inten    --      5.0535                25.9596                42.0903

                     61                     62                     63
                      A                      A                      A
 Frequencies --   1442.4168              1455.5392              1484.1796
 Red. masses --      1.4402                 1.3341                 1.2644
 Frc consts  --      1.7654                 1.6653                 1.6409
 IR Inten    --     11.9130                 9.7231                26.0950

                     64                     65                     66
                      A                      A                      A
 Frequencies --   1494.3825              1515.1571              1548.5551
 Red. masses --      1.2930                 1.4748                 1.0962
 Frc consts  --      1.7013                 1.9948                 1.5487
 IR Inten    --    100.6255                52.5035                 0.1697

                     67                     68                     69
                      A                      A                      A
 Frequencies --   1712.6447              1720.7626              3003.3899
 Red. masses --      1.0776                 1.0752                 1.0701
 Frc consts  --      1.8622                 1.8758                 5.6873
 IR Inten    --     66.0139                45.7413                37.4923

                     70                     71                     72
                      A                      A                      A
 Frequencies --   3028.5091              3031.8772              3055.6286
 Red. masses --      1.0837                 1.0826                 1.0860
 Frc consts  --      5.8564                 5.8630                 5.9743
 IR Inten    --      4.1903                16.4524                20.0529

                     73                     74                     75
                      A                      A                      A
 Frequencies --   3065.2773              3073.4897              3089.8967
 Red. masses --      1.0847                 1.0872                 1.0955
 Frc consts  --      6.0048                 6.0509                 6.1625
 IR Inten    --     54.4969                38.8812                48.3470

                     76                     77                     78
                      A                      A                      A
 Frequencies --   3460.5963              3506.9746              3588.6132
 Red. masses --      1.0667                 1.0653                 1.0561
 Frc consts  --      7.5263                 7.7196                 8.0131
 IR Inten    --    438.0699               248.9547               317.9711

                     79                     80                     81
                      A                      A                      A
 Frequencies --   3617.6297              3651.1329              3729.7666
 Red. masses --      1.0543                 1.0663                 1.0659
 Frc consts  --      8.1298                 8.3746                 8.7362
 IR Inten    --    274.4216               105.0597                39.9516

                     82                     83                     84
                      A                      A                      A
 Frequencies --   3738.5240              3805.6441              3806.2694
 Red. masses --      1.0658                 1.0725                 1.0739
 Frc consts  --      8.7769                 9.1516                 9.1668
 IR Inten    --     27.6817                80.5724                76.6445

 - Thermochemistry -
 -------------------
 Temperature   298.150 Kelvin.  Pressure   1.00000 Atm.
 Atom     1 has atomic number  6 and mass  12.00000

 Molecular mass:   216.08452 amu.
 Principal axes and moments of inertia in atomic units:
                           1         2         3
     Eigenvalues --  2583.140173370.693265040.05971
           X            0.99999   0.00208   0.00483
           Y           -0.00210   0.99999   0.00448
           Z           -0.00482  -0.00449   0.99998
 This molecule is an asymmetric top.
 Rotational symmetry number  1.
 Warning -- assumption of classical behavior for rotation
           may cause significant error
 Rotational temperatures (Kelvin)      0.03353     0.02570     0.01719
 Rotational constants (GHZ):           0.69866     0.53542     0.35808
 Zero-point vibrational energy     655006.9 (Joules/Mol)
                                  156.55040 (Kcal/Mol)
 Warning -- explicit consideration of  30 degrees of freedom as
           vibrations may cause significant error
 Vibrational temperatures:     50.88    95.79   103.40   119.56   160.27
          (Kelvin)            182.28   221.80   251.95   276.70   288.49
                              322.07   365.99   371.39   376.34   400.50
                              424.00   479.24   505.93   520.17   536.12
                              568.30   589.90   644.49   680.13   721.97
                              738.37   771.85   785.63   836.52   886.53
                              959.62   963.88  1091.45  1182.66  1286.69
                             1302.15  1333.97  1429.63  1460.83  1515.93
                             1520.45  1568.91  1584.37  1598.66  1611.05
                             1626.03  1654.70  1678.29  1758.78  1775.13
                             1813.79  1867.16  1898.26  1912.14  1937.41
                             1977.41  2005.05  2024.40  2029.82  2052.01
                             2075.31  2094.19  2135.40  2150.08  2179.97
                             2228.02  2464.11  2475.79  4321.20  4357.34
                             4362.19  4396.36  4410.24  4422.06  4445.67
                             4979.02  5045.75  5163.21  5204.96  5253.16
                             5366.30  5378.90  5475.47  5476.37

 Zero-point correction=                           0.249479 (Hartree/Particle)
 Thermal correction to Energy=                    0.266848
 Thermal correction to Enthalpy=                  0.267792
 Thermal correction to Gibbs Free Energy=         0.205390
 Sum of electronic and zero-point Energies=           -839.748373
 Sum of electronic and thermal Energies=              -839.731005
 Sum of electronic and thermal Enthalpies=            -839.730060
 Sum of electronic and thermal Free Energies=         -839.792462

                     E (Thermal)             CV                S
                      KCal/Mol        Cal/Mol-Kelvin    Cal/Mol-Kelvin
 Total                  167.449             64.290            131.335
 Electronic               0.000              0.000              0.000
 Translational            0.889              2.981             42.015
 Rotational               0.889              2.981             32.151
 Vibrational            165.672             58.328             57.170
 Vibration     1          0.594              1.982              5.503
 Vibration     2          0.598              1.970              4.252
 Vibration     3          0.598              1.967              4.102
 Vibration     4          0.600              1.961              3.816
 Vibration     5          0.607              1.940              3.244
 Vibration     6          0.611              1.926              2.996
 Vibration     7          0.620              1.898              2.620
 Vibration     8          0.627              1.873              2.380
 Vibration     9          0.634              1.851              2.205
 Vibration    10          0.638              1.839              2.128
 Vibration    11          0.649              1.805              1.928
 Vibration    12          0.665              1.755              1.700
 Vibration    13          0.667              1.749              1.674
 Vibration    14          0.669              1.743              1.651
 Vibration    15          0.679              1.714              1.544
 Vibration    16          0.689              1.684              1.447
 Vibration    17          0.715              1.609              1.245
 Vibration    18          0.728              1.572              1.159
 Vibration    19          0.736              1.551              1.115
 Vibration    20          0.744              1.528              1.069
 Vibration    21          0.762              1.481              0.981
 Vibration    22          0.774              1.449              0.927
 Vibration    23          0.807              1.365              0.802
 Vibration    24          0.830              1.311              0.730
 Vibration    25          0.857              1.246              0.654
 Vibration    26          0.868              1.221              0.626
 Vibration    27          0.891              1.169              0.573
 Vibration    28          0.901              1.148              0.552
 Vibration    29          0.938              1.072              0.483
 Vibration    30          0.976              0.998              0.423

 Normal termination of Gaussian 09 at Wed Jan 11 00:19:24 2017.
