 Gaussian 09, Revision E.01,
 Gaussian 09:  ES64L-G09RevE.01 30-Nov-2015

 ----------------------------------------------------------------------
 # opt=(TS,CalcFC,NoEigenTest,MaxCycle=500,cartesian) Freq B3LYP 6-31G(
 d)
 ----------------------------------------------------------------------

 -------------------------
 boat3_Alpha_B3LYP_6-31G_d
 -------------------------
 Symbolic Z-matrix:
 Charge =  0 Multiplicity = 1

 SCF Done:  E(RB3LYP) =  -839.961284255     A.U. after   13 cycles
 SCF Done:  E(RB3LYP) =  -839.961350757     A.U. after   11 cycles
 SCF Done:  E(RB3LYP) =  -839.961355546     A.U. after   10 cycles
 SCF Done:  E(RB3LYP) =  -839.961356120     A.U. after    8 cycles
 SCF Done:  E(RB3LYP) =  -839.961356305     A.U. after    7 cycles
 SCF Done:  E(RB3LYP) =  -839.961356246     A.U. after    7 cycles
 Optimization completed.
    -- Stationary point found.
 Normal termination of Gaussian 09 at Tue Jan 10 14:05:45 2017.

 --------------------------------------------------------------------
 #N Geom=AllCheck Guess=TCheck SCRF=Check GenChk RB3LYP/6-31G(d) Freq
 --------------------------------------------------------------------

 Structure from the checkpoint file:  "/scratch/10450569.yak.local/Gau-15614.chk"
 -------------------------
 boat3_Alpha_B3LYP_6-31G_d
 -------------------------
 Charge =  0 Multiplicity = 1

                         Standard orientation:
 ---------------------------------------------------------------------
 Center     Atomic      Atomic             Coordinates (Angstroms)
 Number     Number       Type             X           Y           Z
 ---------------------------------------------------------------------
      1          6           0       -1.034643   -0.206932    1.098123
      2          6           0       -0.483613    1.522653   -0.745477
      3          8           0        0.521996   -0.688697   -0.783344
      4          6           0        0.903569    0.894740   -0.632097
      5          6           0       -0.529149   -1.231049    0.068997
      6          6           0       -1.363085    1.173649    0.465328
      7          1           0       -1.178309    1.921166    1.247702
      8          1           0       -0.962201    1.094101   -1.637989
      9          1           0       -0.080903   -2.058542    0.636136
     10          1           0       -1.956787   -0.625945    1.518243
     11          6           0       -1.635736   -1.788374   -0.840671
     12          1           0       -1.173619   -2.391780   -1.636663
     13          1           0       -2.190927   -0.973316   -1.310037
     14          8           0       -2.596183   -2.532295   -0.100778
     15          1           0       -2.153851   -3.319424    0.254718
     16          8           0       -0.318561    2.922838   -0.903682
     17          1           0       -1.211324    3.287427   -1.015902
     18          8           0       -2.706338    1.275403   -0.022882
     19          1           0       -3.308239    1.175147    0.731540
     20          8           0       -0.129076   -0.066793    2.176457
     21          1           0        0.634227    0.434029    1.803091
     22          1           0        1.463635    0.985805   -1.575996
     23          8           0        1.580490    1.137452    0.460784
     24          8           0        2.624596   -1.862322   -0.532546
     25          1           0        1.579295   -1.332451   -0.681628
     26          1           0        2.982811   -2.093999   -1.404779
     27          8           0        3.792766    0.077716    0.334675
     28          1           0        2.862039    0.663962    0.409023
     29          1           0        3.275509   -1.026325   -0.094650
     30          1           0        4.117057   -0.034390    1.242515
 ---------------------------------------------------------------------

 SCF Done:  E(RB3LYP) =  -839.961356246     A.U. after    1 cycles

 The electronic state is 1-A.
 Alpha  occ. eigenvalues --  -19.18632 -19.17973 -19.16096 -19.15386 -19.15368
 Alpha  occ. eigenvalues --  -19.14138 -19.11660 -19.11034 -10.28595 -10.24448
 Alpha  occ. eigenvalues --  -10.23421 -10.23273 -10.23237 -10.23062  -1.06548
 Alpha  occ. eigenvalues --   -1.03936  -1.02716  -1.02303  -1.01471  -1.00996
 Alpha  occ. eigenvalues --   -0.99373  -0.97565  -0.77132  -0.75334  -0.68127
 Alpha  occ. eigenvalues --   -0.64464  -0.62015  -0.57373  -0.55855  -0.54874
 Alpha  occ. eigenvalues --   -0.54214  -0.53152  -0.51109  -0.50348  -0.48494
 Alpha  occ. eigenvalues --   -0.46452  -0.46286  -0.44894  -0.44400  -0.43362
 Alpha  occ. eigenvalues --   -0.41131  -0.40794  -0.39541  -0.38638  -0.37439
 Alpha  occ. eigenvalues --   -0.36355  -0.35322  -0.34798  -0.34382  -0.32584
 Alpha  occ. eigenvalues --   -0.31787  -0.30644  -0.28678  -0.27763  -0.27163
 Alpha  occ. eigenvalues --   -0.25757  -0.25049  -0.23796
 Alpha virt. eigenvalues --    0.04300   0.05458   0.06752   0.07060   0.08499
 Alpha virt. eigenvalues --    0.10392   0.11786   0.12220   0.12712   0.15063
 Alpha virt. eigenvalues --    0.15247   0.16627   0.17476   0.18823   0.20276

 Mulliken charges:
               1
     1  C    0.113105
     2  C    0.138049
     3  O   -0.646547
     4  C    0.319821
     5  C    0.091288
     6  C    0.066229
     7  H    0.154139
     8  H    0.132725
     9  H    0.138106
    10  H    0.141671
    11  C   -0.052601
    12  H    0.126035
    13  H    0.178062
    14  O   -0.609961
    15  H    0.391384
    16  O   -0.633539
    17  H    0.401286
    18  O   -0.643321
    19  H    0.399321
    20  O   -0.674466
    21  H    0.419820
    22  H    0.128442
    23  O   -0.650126
    24  O   -0.828365
    25  H    0.484257
    26  H    0.415812
    27  O   -0.836277
    28  H    0.464642
    29  H    0.462560
    30  H    0.408450
 Sum of Mulliken charges =  -0.00000

 Dipole moment (field-independent basis, Debye):
    X=              1.0771    Y=             -2.9641    Z=             -1.3000  Tot=              3.4111
 Quadrupole moment (field-independent basis, Debye-Ang):
   XX=            -77.9517   YY=            -80.8212   ZZ=            -83.1072
   XY=            -11.6693   XZ=             -2.9838   YZ=              3.3614

  Exact polarizability: 107.919   0.162  98.196   0.387   0.471  85.481
 Approx polarizability: 140.550   3.003 131.646   3.243   1.258 128.449

 ******    1 imaginary frequencies (negative Signs) ******

                      1                      2                      3
                      A                      A                      A
 Frequencies --  -1112.7808                42.6192                54.9504
 Red. masses --      1.1620                 5.4953                 5.5057
 Frc consts  --      0.8478                 0.0059                 0.0098
 IR Inten    --    522.2908                 1.1295                 0.5306

                      4                      5                      6
                      A                      A                      A
 Frequencies --     76.8940                80.8135               118.4590
 Red. masses --      4.9858                 5.4507                 6.6789
 Frc consts  --      0.0174                 0.0210                 0.0552
 IR Inten    --      2.2035                 0.2282                 0.5984

                      7                      8                      9
                      A                      A                      A
 Frequencies --    136.9406               178.6910               206.6005
 Red. masses --      3.3044                 3.6022                 5.6254
 Frc consts  --      0.0365                 0.0678                 0.1415
 IR Inten    --      4.8447                 5.2647                 8.4523

                     10                     11                     12
                      A                      A                      A
 Frequencies --    210.0110               239.2626               266.5357
 Red. masses --      8.1521                 5.0237                 3.8039
 Frc consts  --      0.2118                 0.1694                 0.1592
 IR Inten    --     11.7207                 1.8786                 6.5943

                     13                     14                     15
                      A                      A                      A
 Frequencies --    287.3815               328.4907               337.5474
 Red. masses --      4.4619                 2.3525                 1.3629
 Frc consts  --      0.2171                 0.1496                 0.0915
 IR Inten    --      0.6240                62.1466               142.2514

                     16                     17                     18
                      A                      A                      A
 Frequencies --    343.6694               361.8893               378.3312
 Red. masses --      1.4865                 2.9956                 1.6746
 Frc consts  --      0.1034                 0.2311                 0.1412
 IR Inten    --     78.7251                32.2484                48.4670

                     19                     20                     21
                      A                      A                      A
 Frequencies --    401.9015               418.7094               441.1342
 Red. masses --      3.0100                 1.2019                 3.1252
 Frc consts  --      0.2865                 0.1242                 0.3583
 IR Inten    --     66.0617                82.5215               134.2701

                     22                     23                     24
                      A                      A                      A
 Frequencies --    485.3177               506.6931               518.0764
 Red. masses --      5.2628                 4.7196                 4.6660
 Frc consts  --      0.7303                 0.7139                 0.7379
 IR Inten    --    152.9084                13.5186               187.7688

                     25                     26                     27
                      A                      A                      A
 Frequencies --    557.1286               569.8312               583.7356
 Red. masses --      1.4998                 2.8583                 5.4079
 Frc consts  --      0.2743                 0.5468                 1.0857
 IR Inten    --     59.8966                32.3945               156.7108

                     28                     29                     30
                      A                      A                      A
 Frequencies --    623.7502               637.5149               705.1274
 Red. masses --      2.8915                 1.6559                 2.1523
 Frc consts  --      0.6628                 0.3965                 0.6305
 IR Inten    --      7.7239                 3.2330                71.3138

                     31                     32                     33
                      A                      A                      A
 Frequencies --    741.2844               755.7140               761.9535
 Red. masses --      1.1969                 1.5804                 2.3364
 Frc consts  --      0.3875                 0.5318                 0.7992
 IR Inten    --     17.4473               134.6698               305.6544

                     34                     35                     36
                      A                      A                      A
 Frequencies --    815.5171               846.4949               925.6381
 Red. masses --      2.5515                 5.3798                 2.9084
 Frc consts  --      0.9998                 2.2713                 1.4682
 IR Inten    --     44.6253               175.7217                34.7014

                     37                     38                     39
                      A                      A                      A
 Frequencies --    972.8284               994.3323              1049.3947
 Red. masses --      2.7640                 2.1633                 2.7221
 Frc consts  --      1.5412                 1.2602                 1.7662
 IR Inten    --    141.3796                78.4909                65.4680

                     40                     41                     42
                      A                      A                      A
 Frequencies --   1073.7116              1085.4622              1096.1066
 Red. masses --      3.1832                 4.7522                 3.0011
 Frc consts  --      2.1622                 3.2990                 2.1244
 IR Inten    --    312.9837                77.1076                 9.0645

                     43                     44                     45
                      A                      A                      A
 Frequencies --   1109.5124              1117.5922              1122.9705
 Red. masses --      2.9414                 2.0010                 3.1981
 Frc consts  --      2.1334                 1.4725                 2.3762
 IR Inten    --     34.2338                48.6744               143.5126

                     46                     47                     48
                      A                      A                      A
 Frequencies --   1145.0123              1201.5232              1228.3804
 Red. masses --      1.3047                 1.3289                 1.2285
 Frc consts  --      1.0078                 1.1303                 1.0922
 IR Inten    --    504.9834                 8.3088                92.0203

                     49                     50                     51
                      A                      A                      A
 Frequencies --   1244.9140              1271.3567              1301.0901
 Red. masses --      1.2711                 1.2589                 1.5757
 Frc consts  --      1.1607                 1.1989                 1.5715
 IR Inten    --    123.6270                33.2629                17.8683

                     52                     53                     54
                      A                      A                      A
 Frequencies --   1318.4694              1341.8562              1350.6887
 Red. masses --      1.1718                 1.4555                 1.2534
 Frc consts  --      1.2001                 1.5441                 1.3473
 IR Inten    --     30.4802               240.2786                 9.6855

                     55                     56                     57
                      A                      A                      A
 Frequencies --   1366.3301              1375.5319              1396.5138
 Red. masses --      1.2969                 1.2940                 1.2520
 Frc consts  --      1.4264                 1.4425                 1.4387
 IR Inten    --    195.6463                29.1389               487.5930

                     58                     59                     60
                      A                      A                      A
 Frequencies --   1406.1193              1423.0652              1433.1597
 Red. masses --      1.4935                 1.1446                 1.2275
 Frc consts  --      1.7398                 1.3657                 1.4854
 IR Inten    --     31.7457                23.3950               112.8881

                     61                     62                     63
                      A                      A                      A
 Frequencies --   1452.9220              1457.6620              1485.2909
 Red. masses --      1.4300                 1.5359                 1.4147
 Frc consts  --      1.7785                 1.9228                 1.8388
 IR Inten    --     74.4851               117.6544              1700.7640

                     64                     65                     66
                      A                      A                      A
 Frequencies --   1509.4441              1529.5794              1545.0545
 Red. masses --      1.4423                 1.0872                 1.1229
 Frc consts  --      1.9361                 1.4987                 1.5793
 IR Inten    --    468.2681                 7.4217               433.5199

                     67                     68                     69
                      A                      A                      A
 Frequencies --   1599.7432              1650.2254              1720.4626
 Red. masses --      1.1084                 1.0597                 1.0577
 Frc consts  --      1.6713                 1.7003                 1.8446
 IR Inten    --   1119.2783               228.5199               270.8825

                     70                     71                     72
                      A                      A                      A
 Frequencies --   1847.8466              1929.0638              3010.2663
 Red. masses --      1.0462                 1.0880                 1.0851
 Frc consts  --      2.1048                 2.3856                 5.7935
 IR Inten    --    373.7896              2330.6508                66.7658

                     73                     74                     75
                      A                      A                      A
 Frequencies --   3017.5199              3025.8957              3036.1653
 Red. masses --      1.0722                 1.0856                 1.0850
 Frc consts  --      5.7522                 5.8566                 5.8929
 IR Inten    --     49.0956                66.6804                40.8568

                     76                     77                     78
                      A                      A                      A
 Frequencies --   3052.2992              3072.2865              3142.0986
 Red. masses --      1.0856                 1.0857                 1.0944
 Frc consts  --      5.9589                 6.0379                 6.3662
 IR Inten    --     36.7377                25.7036                13.8303

                     79                     80                     81
                      A                      A                      A
 Frequencies --   3447.3097              3733.5626              3736.8282
 Red. masses --      1.0666                 1.0662                 1.0660
 Frc consts  --      7.4683                 8.7565                 8.7701
 IR Inten    --    273.2241                13.7494                21.7250

                     82                     83                     84
                      A                      A                      A
 Frequencies --   3741.0751              3774.7569              3778.3098
 Red. masses --      1.0662                 1.0648                 1.0650
 Frc consts  --      8.7917                 8.9395                 8.9579
 IR Inten    --     20.6399                56.4139                41.0106

 - Thermochemistry -
 -------------------
 Temperature   298.150 Kelvin.  Pressure   1.00000 Atm.
 Atom     1 has atomic number  6 and mass  12.00000

 Molecular mass:   216.08452 amu.
 Principal axes and moments of inertia in atomic units:
                           1         2         3
     Eigenvalues --  2418.341483368.073134582.19055
           X            0.99975  -0.02237  -0.00065
           Y            0.02238   0.99969   0.01063
           Z            0.00041  -0.01065   0.99994
 This molecule is an asymmetric top.
 Rotational symmetry number  1.
 Warning -- assumption of classical behavior for rotation
           may cause significant error
 Rotational temperatures (Kelvin)      0.03582     0.02572     0.01890
 Rotational constants (GHZ):           0.74627     0.53584     0.39386
    1 imaginary frequencies ignored.
 Zero-point vibrational energy     632024.2 (Joules/Mol)
                                  151.05741 (Kcal/Mol)
 Warning -- explicit consideration of  26 degrees of freedom as
           vibrations may cause significant error
 Vibrational temperatures:     61.32    79.06   110.63   116.27   170.44
          (Kelvin)            197.03   257.10   297.25   302.16   344.25
                              383.48   413.48   472.62   485.65   494.46
                              520.68   544.33   578.25   602.43   634.69
                              698.26   729.02   745.40   801.58   819.86
                              839.86   897.44   917.24  1014.52  1066.54
                             1087.30  1096.28  1173.35  1217.92  1331.79
                             1399.68  1430.62  1509.84  1544.83  1561.74
                             1577.05  1596.34  1607.96  1615.70  1647.42
                             1728.72  1767.36  1791.15  1829.20  1871.98
                             1896.98  1930.63  1943.34  1965.84  1979.08
                             2009.27  2023.09  2047.47  2061.99  2090.43
                             2097.25  2137.00  2171.75  2200.72  2222.99
                             2301.67  2374.30  2475.36  2658.64  2775.49
                             4331.10  4341.53  4353.58  4368.36  4391.57
                             4420.33  4520.77  4959.90  5371.76  5376.46
                             5382.57  5431.03  5436.14

 Zero-point correction=                           0.240725 (Hartree/Particle)
 Thermal correction to Energy=                    0.256449
 Thermal correction to Enthalpy=                  0.257393
 Thermal correction to Gibbs Free Energy=         0.198272
 Sum of electronic and zero-point Energies=           -839.720631
 Sum of electronic and thermal Energies=              -839.704908
 Sum of electronic and thermal Enthalpies=            -839.703964
 Sum of electronic and thermal Free Energies=         -839.763084

                     E (Thermal)             CV                S
                      KCal/Mol        Cal/Mol-Kelvin    Cal/Mol-Kelvin
 Total                  160.924             59.787            124.429
 Electronic               0.000              0.000              0.000
 Translational            0.889              2.981             42.015
 Rotational               0.889              2.981             31.990
 Vibrational            159.146             53.825             50.425
 Vibration     1          0.595              1.980              5.133
 Vibration     2          0.596              1.976              4.631
 Vibration     3          0.599              1.965              3.969
 Vibration     4          0.600              1.962              3.871
 Vibration     5          0.609              1.934              3.125
 Vibration     6          0.614              1.916              2.846
 Vibration     7          0.629              1.869              2.342
 Vibration     8          0.641              1.830              2.074
 Vibration     9          0.642              1.826              2.044
 Vibration    10          0.657              1.780              1.808
 Vibration    11          0.672              1.735              1.619
 Vibration    12          0.685              1.697              1.489
 Vibration    13          0.712              1.619              1.267
 Vibration    14          0.718              1.600              1.224
 Vibration    15          0.722              1.588              1.195
 Vibration    16          0.736              1.551              1.114
 Vibration    17          0.749              1.516              1.046
 Vibration    18          0.768              1.466              0.956
 Vibration    19          0.782              1.430              0.896
 Vibration    20          0.801              1.380              0.823
 Vibration    21          0.841              1.283              0.696
 Vibration    22          0.862              1.235              0.642
 Vibration    23          0.873              1.210              0.614
 Vibration    24          0.913              1.124              0.530
 Vibration    25          0.926              1.097              0.505
 Vibration    26          0.941              1.067              0.478

 Optimization completed.
    -- Stationary point found.
 Normal termination of Gaussian 09 at Tue Jan 10 14:16:53 2017.
