 Gaussian 09, Revision E.01,
 Gaussian 09:  ES64L-G09RevE.01 30-Nov-2015

 ----------------------------
 # OPT FREQ B3LYP/gen gfinput
 ----------------------------

 -------
 CF4.LOG
 -------
 Symbolic Z-matrix:
 Charge =  0 Multiplicity = 1

 SCF Done:  E(RB3LYP) =  -436.219258012     A.U. after   10 cycles
 SCF Done:  E(RB3LYP) =  -436.541319353     A.U. after   10 cycles
 SCF Done:  E(RB3LYP) =  -436.773592143     A.U. after   11 cycles
 SCF Done:  E(RB3LYP) =  -436.782239898     A.U. after   10 cycles
 SCF Done:  E(RB3LYP) =  -436.782334379     A.U. after    6 cycles
 Optimization completed.
    -- Stationary point found.
 Normal termination of Gaussian 09 at Thu Mar  9 19:18:28 2017.

 ------------------------------------------------------------------
 #N Geom=AllCheck Guess=TCheck SCRF=Check GenChk RB3LYP/ChkBas Freq
 ------------------------------------------------------------------

 Structure from the checkpoint file:  "//home/aalrawas/scratch/Gau-28307.chk"
 -------
 CF4.LOG
 -------
 Charge =  0 Multiplicity = 1

                         Standard orientation:
 ---------------------------------------------------------------------
 Center     Atomic      Atomic             Coordinates (Angstroms)
 Number     Number       Type             X           Y           Z
 ---------------------------------------------------------------------
      1          6           0        0.000000    0.000000    0.000000
      2          9           0        0.795106    0.795106    0.795106
      3          9           0       -0.795106   -0.795106    0.795106
      4          9           0       -0.795106    0.795106   -0.795106
      5          9           0        0.795106   -0.795106   -0.795106
 ---------------------------------------------------------------------

 SCF Done:  E(RB3LYP) =  -436.782334379     A.U. after    1 cycles

 The electronic state is 1-A1.
 Alpha  occ. eigenvalues --  -24.75525 -24.75505 -24.75505 -24.75505 -10.54056
 Alpha  occ. eigenvalues --   -1.38016  -1.27832  -1.27832  -1.27832  -0.74336
 Alpha  occ. eigenvalues --   -0.63542  -0.63542  -0.63542  -0.49713  -0.49713
 Alpha  occ. eigenvalues --   -0.47790  -0.47790  -0.47790  -0.44445  -0.44445
 Alpha  occ. eigenvalues --   -0.44445
 Alpha virt. eigenvalues --    0.06932   0.12434   0.12434   0.12434   0.16597
 Alpha virt. eigenvalues --    0.46177   0.46177   0.46177   0.54913   0.54913
 Alpha virt. eigenvalues --    0.54913   0.68107   1.20309   1.20309   1.48791

 Mulliken charges:
               1
     1  C    0.536541
     2  F   -0.134135
     3  F   -0.134135
     4  F   -0.134135
     5  F   -0.134135
 Sum of Mulliken charges =   0.00000

 Dipole moment (field-independent basis, Debye):
    X=             -0.0000    Y=             -0.0000    Z=             -0.0000  Tot=              0.0000
 Quadrupole moment (field-independent basis, Debye-Ang):
   XX=            -26.0066   YY=            -26.0066   ZZ=            -26.0066
   XY=              0.0000   XZ=              0.0000   YZ=              0.0000

  Exact polarizability:  12.419  -0.000  12.419  -0.000  -0.000  12.419
 Approx polarizability:  16.939  -0.000  16.939  -0.000   0.000  16.939

                      1                      2                      3
                      E                      E                     T2
 Frequencies --    358.2510               358.2510               549.5502
 Red. masses --     18.9984                18.9984                18.0355
 Frc consts  --      1.4366                 1.4366                 3.2092
 IR Inten    --      0.0000                 0.0000                13.8702

                      4                      5                      6
                     T2                     T2                     A1
 Frequencies --    549.5502               549.5502               832.6560
 Red. masses --     18.0355                18.0355                18.9984
 Frc consts  --      3.2092                 3.2092                 7.7607
 IR Inten    --     13.8702                13.8702                 0.0000

                      7                      8                      9
                     T2                     T2                     T2
 Frequencies --   1283.1854              1283.1854              1283.1854
 Red. masses --     13.0998                13.0998                13.0998
 Frc consts  --     12.7085                12.7085                12.7085
 IR Inten    --    343.3265               343.3265               343.3265

 - Thermochemistry -
 -------------------
 Temperature   298.150 Kelvin.  Pressure   1.00000 Atm.
 Atom     1 has atomic number  6 and mass  12.00000

 Molecular mass:    87.99361 amu.
 Principal axes and moments of inertia in atomic units:
                           1         2         3
     Eigenvalues --   343.12692 343.12692 343.12692
           X            1.00000  -0.00000   0.00000
           Y            0.00000   1.00000   0.00000
           Z            0.00000   0.00000   1.00000
 This molecule is a spherical top.
 Rotational symmetry number 12.
 Rotational temperatures (Kelvin)      0.25243     0.25243     0.25243
 Rotational constants (GHZ):           5.25969     5.25969     5.25969
 Zero-point vibrational energy      42152.6 (Joules/Mol)
                                   10.07471 (Kcal/Mol)
 Warning -- explicit consideration of   5 degrees of freedom as
           vibrations may cause significant error
 Vibrational temperatures:    515.44   515.44   790.68   790.68   790.68
          (Kelvin)           1198.00  1846.22  1846.22  1846.22

 Zero-point correction=                           0.016055 (Hartree/Particle)
 Thermal correction to Energy=                    0.020267
 Thermal correction to Enthalpy=                  0.021212
 Thermal correction to Gibbs Free Energy=        -0.009087
 Sum of electronic and zero-point Energies=           -436.766279
 Sum of electronic and thermal Energies=              -436.762067
 Sum of electronic and thermal Enthalpies=            -436.761123
 Sum of electronic and thermal Free Energies=         -436.791421

                     E (Thermal)             CV                S
                      KCal/Mol        Cal/Mol-Kelvin    Cal/Mol-Kelvin
 Total                   12.718             13.568             63.769
 Electronic               0.000              0.000              0.000
 Translational            0.889              2.981             39.337
 Rotational               0.889              2.981             20.267
 Vibrational             10.941              7.606              4.165
 Vibration     1          0.733              1.558              1.130
 Vibration     2          0.733              1.558              1.130
 Vibration     3          0.905              1.141              0.545
 Vibration     4          0.905              1.141              0.545
 Vibration     5          0.905              1.141              0.545

 Optimization completed.
    -- Stationary point found.
 Normal termination of Gaussian 09 at Thu Mar  9 19:18:34 2017.
