 Gaussian 09, Revision E.01,
 Gaussian 09:  ES64L-G09RevE.01 30-Nov-2015

 ----------------------------
 # OPT FREQ B3LYP/gen gfinput
 ----------------------------

 -------
 CH4.LOG
 -------
 Symbolic Z-matrix:
 Charge =  0 Multiplicity = 1

 SCF Done:  E(RB3LYP) =  -40.4361494349     A.U. after   10 cycles
 SCF Done:  E(RB3LYP) =  -40.4365245192     A.U. after    6 cycles
 Optimization completed.
    -- Stationary point found.
 Normal termination of Gaussian 09 at Thu Mar  9 18:39:05 2017.

 ------------------------------------------------------------------
 #N Geom=AllCheck Guess=TCheck SCRF=Check GenChk RB3LYP/ChkBas Freq
 ------------------------------------------------------------------

 Structure from the checkpoint file:  "//home/aalrawas/scratch/Gau-27442.chk"
 -------
 CH4.LOG
 -------
 Charge =  0 Multiplicity = 1

                         Standard orientation:
 ---------------------------------------------------------------------
 Center     Atomic      Atomic             Coordinates (Angstroms)
 Number     Number       Type             X           Y           Z
 ---------------------------------------------------------------------
      1          6           0        0.000000    0.000000    0.000000
      2          1           0        0.637555    0.637555    0.637555
      3          1           0       -0.637555   -0.637555    0.637555
      4          1           0       -0.637555    0.637555   -0.637555
      5          1           0        0.637555   -0.637555   -0.637555
 ---------------------------------------------------------------------

 SCF Done:  E(RB3LYP) =  -40.4365245192     A.U. after    1 cycles

 The electronic state is 1-A1.
 Alpha  occ. eigenvalues --  -10.14668  -0.69245  -0.38866  -0.38866  -0.38866
 Alpha virt. eigenvalues --    0.13985   0.15860   0.15860   0.15860   0.33509
 Alpha virt. eigenvalues --    0.52655   0.52655   0.52655   0.83591   0.83591
 Alpha virt. eigenvalues --    0.83591   1.04604

 Mulliken charges:
               1
     1  C   -0.839667
     2  H    0.209917
     3  H    0.209917
     4  H    0.209917
     5  H    0.209917
 Sum of Mulliken charges =   0.00000

 Dipole moment (field-independent basis, Debye):
    X=             -0.0000    Y=              0.0000    Z=              0.0000  Tot=              0.0000
 Quadrupole moment (field-independent basis, Debye-Ang):
   XX=             -8.3488   YY=             -8.3488   ZZ=             -8.3488
   XY=              0.0000   XZ=              0.0000   YZ=              0.0000

  Exact polarizability:  11.813   0.000  11.813   0.000  -0.000  11.813
 Approx polarizability:  13.746   0.000  13.746  -0.000  -0.000  13.746

                      1                      2                      3
                     T2                     T2                     T2
 Frequencies --   1378.2786              1378.2786              1378.2786
 Red. masses --      1.1816                 1.1816                 1.1816
 Frc consts  --      1.3225                 1.3225                 1.3225
 IR Inten    --     24.7535                24.7535                24.7535

                      4                      5                      6
                      E                      E                     A1
 Frequencies --   1587.2891              1587.2891              2948.8004
 Red. masses --      1.0078                 1.0078                 1.0078
 Frc consts  --      1.4961                 1.4961                 5.1633
 IR Inten    --      0.0000                 0.0000                 0.0000

                      7                      8                      9
                     T2                     T2                     T2
 Frequencies --   3103.7723              3103.7723              3103.7723
 Red. masses --      1.0994                 1.0994                 1.0994
 Frc consts  --      6.2398                 6.2398                 6.2398
 IR Inten    --     28.2891                28.2891                28.2891

 - Thermochemistry -
 -------------------
 Temperature   298.150 Kelvin.  Pressure   1.00000 Atm.
 Atom     1 has atomic number  6 and mass  12.00000

 Molecular mass:    16.03130 amu.
 Principal axes and moments of inertia in atomic units:
                           1         2         3
     Eigenvalues --    11.70331  11.70331  11.70331
           X            0.00000  -0.00000   1.00000
           Y            0.00000   1.00000   0.00000
           Z            1.00000   0.00000   0.00000
 This molecule is a spherical top.
 Rotational symmetry number 12.
 Rotational temperatures (Kelvin)      7.40079     7.40079     7.40079
 Rotational constants (GHZ):         154.20772   154.20772   154.20772
 Zero-point vibrational energy     117051.8 (Joules/Mol)
                                   27.97605 (Kcal/Mol)
 Vibrational temperatures:   1983.03  1983.03  1983.03  2283.75  2283.75
          (Kelvin)           4242.66  4465.63  4465.63  4465.63

 Zero-point correction=                           0.044583 (Hartree/Particle)
 Thermal correction to Energy=                    0.047446
 Thermal correction to Enthalpy=                  0.048391
 Thermal correction to Gibbs Free Energy=         0.027231
 Sum of electronic and zero-point Energies=            -40.391942
 Sum of electronic and thermal Energies=               -40.389078
 Sum of electronic and thermal Enthalpies=             -40.388134
 Sum of electronic and thermal Free Energies=          -40.409293

                     E (Thermal)             CV                S
                      KCal/Mol        Cal/Mol-Kelvin    Cal/Mol-Kelvin
 Total                   29.773              6.414             44.534
 Electronic               0.000              0.000              0.000
 Translational            0.889              2.981             34.261
 Rotational               0.889              2.981             10.197
 Vibrational             27.996              0.452              0.075

 Optimization completed.
    -- Stationary point found.
 Normal termination of Gaussian 09 at Thu Mar  9 18:39:08 2017.
