 Gaussian 09, Revision E.01,
 Gaussian 09:  ES64L-G09RevE.01 30-Nov-2015

 ----------------------------
 # OPT FREQ B3LYP/gen gfinput
 ----------------------------

 ------
 FH.LOG
 ------
 Symbolic Z-matrix:
 Charge =  0 Multiplicity = 1

 SCF Done:  E(RB3LYP) =  -100.260641896     A.U. after    9 cycles
 SCF Done:  E(RB3LYP) =  -100.262185252     A.U. after    9 cycles
 SCF Done:  E(RB3LYP) =  -100.262203240     A.U. after    6 cycles
 Optimization completed.
    -- Stationary point found.
 Normal termination of Gaussian 09 at Thu Mar  9 18:39:11 2017.

 ------------------------------------------------------------------
 #N Geom=AllCheck Guess=TCheck SCRF=Check GenChk RB3LYP/ChkBas Freq
 ------------------------------------------------------------------

 Structure from the checkpoint file:  "//home/aalrawas/scratch/Gau-27611.chk"
 ------
 FH.LOG
 ------
 Charge =  0 Multiplicity = 1

                         Standard orientation:
 ---------------------------------------------------------------------
 Center     Atomic      Atomic             Coordinates (Angstroms)
 Number     Number       Type             X           Y           Z
 ---------------------------------------------------------------------
      1          9           0        0.000000    0.000000    0.096559
      2          1           0        0.000000    0.000000   -0.869027
 ---------------------------------------------------------------------

 SCF Done:  E(RB3LYP) =  -100.262203240     A.U. after    1 cycles

 The electronic state is 1-SG.
 Alpha  occ. eigenvalues --  -24.64122  -1.17524  -0.50837  -0.36951  -0.36951
 Alpha virt. eigenvalues --    0.03835   0.48704   0.66023   1.37466   1.37466
 Alpha virt. eigenvalues --    1.64651

 Mulliken charges:
               1
     1  F   -0.371034
     2  H    0.371034
 Sum of Mulliken charges =  -0.00000

 Dipole moment (field-independent basis, Debye):
    X=              0.0000    Y=              0.0000    Z=             -2.0926  Tot=              2.0926
 Quadrupole moment (field-independent basis, Debye-Ang):
   XX=             -5.3939   YY=             -5.3939   ZZ=             -3.6770
   XY=              0.0000   XZ=              0.0000   YZ=              0.0000

  Exact polarizability:   0.923   0.000   0.923   0.000  -0.000   5.017
 Approx polarizability:   0.891  -0.000   0.891  -0.000  -0.000   6.323

                      1
                     SG
 Frequencies --   3691.4183
 Red. masses --      1.0583
 Frc consts  --      8.4967
 IR Inten    --     11.8048

 - Thermochemistry -
 -------------------
 Temperature   298.150 Kelvin.  Pressure   1.00000 Atm.
 Atom     1 has atomic number  9 and mass  18.99840

 Molecular mass:    20.00623 amu.
 Principal axes and moments of inertia in atomic units:
                           1         2         3
     Eigenvalues --     0.00000   3.18651   3.18651
           X            0.00000  -0.00000   1.00000
           Y            0.00000   1.00000   0.00000
           Z            1.00000   0.00000   0.00000
 This molecule is a prolate symmetric top.
 Rotational symmetry number  1.
 Rotational temperature (Kelvin)     27.18137
 Rotational constant (GHZ):         566.368499
 Zero-point vibrational energy      22079.6 (Joules/Mol)
                                    5.27715 (Kcal/Mol)
 Vibrational temperatures:   5311.12
          (Kelvin)

 Zero-point correction=                           0.008410 (Hartree/Particle)
 Thermal correction to Energy=                    0.010770
 Thermal correction to Enthalpy=                  0.011714
 Thermal correction to Gibbs Free Energy=        -0.008084
 Sum of electronic and zero-point Energies=           -100.253794
 Sum of electronic and thermal Energies=              -100.251433
 Sum of electronic and thermal Enthalpies=            -100.250489
 Sum of electronic and thermal Free Energies=         -100.270287

                     E (Thermal)             CV                S
                      KCal/Mol        Cal/Mol-Kelvin    Cal/Mol-Kelvin
 Total                    6.758              4.968             41.668
 Electronic               0.000              0.000              0.000
 Translational            0.889              2.981             34.922
 Rotational               0.592              1.987              6.747
 Vibrational              5.277              0.000              0.000

 Optimization completed.
    -- Stationary point found.
 Normal termination of Gaussian 09 at Thu Mar  9 18:39:13 2017.
