 Gaussian 09, Revision E.01,
 Gaussian 09:  ES64L-G09RevE.01 30-Nov-2015

 ----------------------------
 # OPT FREQ B3LYP/gen gfinput
 ----------------------------

 -------
 LiH.LOG
 -------
 Symbolic Z-matrix:
 Charge =  0 Multiplicity = 1

 SCF Done:  E(RB3LYP) =  -8.05010269880     A.U. after    9 cycles
 SCF Done:  E(RB3LYP) =  -8.05028398947     A.U. after    6 cycles
 SCF Done:  E(RB3LYP) =  -8.05029776186     A.U. after    5 cycles
 Optimization completed.
    -- Stationary point found.
 Normal termination of Gaussian 09 at Thu Mar  9 18:39:19 2017.

 ------------------------------------------------------------------
 #N Geom=AllCheck Guess=TCheck SCRF=Check GenChk RB3LYP/ChkBas Freq
 ------------------------------------------------------------------

 Structure from the checkpoint file:  "//home/aalrawas/scratch/Gau-27726.chk"
 -------
 LiH.LOG
 -------
 Charge =  0 Multiplicity = 1

                         Standard orientation:
 ---------------------------------------------------------------------
 Center     Atomic      Atomic             Coordinates (Angstroms)
 Number     Number       Type             X           Y           Z
 ---------------------------------------------------------------------
      1          3           0        0.000000    0.000000    0.414176
      2          1           0        0.000000    0.000000   -1.242529
 ---------------------------------------------------------------------

 SCF Done:  E(RB3LYP) =  -8.05029776186     A.U. after    1 cycles

 The electronic state is 1-SG.
 Alpha  occ. eigenvalues --   -1.99480  -0.19706
 Alpha virt. eigenvalues --   -0.03283   0.27470   0.73457

 Mulliken charges:
               1
     1  Li   0.484366
     2  H   -0.484366
 Sum of Mulliken charges =  -0.00000

 Dipole moment (field-independent basis, Debye):
    X=              0.0000    Y=              0.0000    Z=              5.1561  Tot=              5.1561
 Quadrupole moment (field-independent basis, Debye-Ang):
   XX=             -5.6721   YY=             -5.6721   ZZ=             -8.8105
   XY=              0.0000   XZ=              0.0000   YZ=              0.0000

  Exact polarizability:   0.000   0.000   0.000   0.000   0.000  32.197
 Approx polarizability:  -0.000  -0.000  -0.000  -0.000  -0.000  48.927

                      1
                     SG
 Frequencies --   1342.3156
 Red. masses --      1.1293
 Frc consts  --      1.1989
 IR Inten    --     37.8471

 - Thermochemistry -
 -------------------
 Temperature   298.150 Kelvin.  Pressure   1.00000 Atm.
 Atom     1 has atomic number  3 and mass   7.01600

 Molecular mass:     8.02383 amu.
 Principal axes and moments of inertia in atomic units:
                           1         2         3
     Eigenvalues --     0.00000   8.63737   8.63737
           X            0.00000  -0.00000   1.00000
           Y            0.00000   1.00000   0.00000
           Z            1.00000   0.00000   0.00000
 This molecule is a prolate symmetric top.
 Rotational symmetry number  1.
 Rotational temperature (Kelvin)     10.02780
 Rotational constant (GHZ):         208.945599
 Zero-point vibrational energy       8028.8 (Joules/Mol)
                                    1.91894 (Kcal/Mol)
 Vibrational temperatures:   1931.29
          (Kelvin)

 Zero-point correction=                           0.003058 (Hartree/Particle)
 Thermal correction to Energy=                    0.005428
 Thermal correction to Enthalpy=                  0.006372
 Thermal correction to Gibbs Free Energy=        -0.013084
 Sum of electronic and zero-point Energies=             -8.047240
 Sum of electronic and thermal Energies=                -8.044870
 Sum of electronic and thermal Enthalpies=              -8.043926
 Sum of electronic and thermal Free Energies=           -8.063382

                     E (Thermal)             CV                S
                      KCal/Mol        Cal/Mol-Kelvin    Cal/Mol-Kelvin
 Total                    3.406              5.097             40.949
 Electronic               0.000              0.000              0.000
 Translational            0.889              2.981             32.198
 Rotational               0.592              1.987              8.728
 Vibrational              1.925              0.129              0.023

 Optimization completed.
    -- Stationary point found.
 Normal termination of Gaussian 09 at Thu Mar  9 18:39:20 2017.
