 Gaussian 09, Revision E.01,
 Gaussian 09:  ES64L-G09RevE.01 30-Nov-2015

 ----------------------------
 # OPT FREQ B3LYP/gen gfinput
 ----------------------------

 -------
 OH2.LOG
 -------
 Symbolic Z-matrix:
 Charge =  0 Multiplicity = 1

 SCF Done:  E(RB3LYP) =  -76.2740718586     A.U. after    9 cycles
 SCF Done:  E(RB3LYP) =  -76.2760109728     A.U. after    9 cycles
 SCF Done:  E(RB3LYP) =  -76.2761076419     A.U. after    7 cycles
 SCF Done:  E(RB3LYP) =  -76.2761081545     A.U. after    6 cycles
 Optimization completed.
    -- Stationary point found.
 Normal termination of Gaussian 09 at Thu Mar  9 18:39:32 2017.

 ------------------------------------------------------------------
 #N Geom=AllCheck Guess=TCheck SCRF=Check GenChk RB3LYP/ChkBas Freq
 ------------------------------------------------------------------

 Structure from the checkpoint file:  "//home/aalrawas/scratch/Gau-27873.chk"
 -------
 OH2.LOG
 -------
 Charge =  0 Multiplicity = 1

                         Standard orientation:
 ---------------------------------------------------------------------
 Center     Atomic      Atomic             Coordinates (Angstroms)
 Number     Number       Type             X           Y           Z
 ---------------------------------------------------------------------
      1          8           0       -0.000000    0.000000    0.122275
      2          1           0       -0.000000    0.790319   -0.489101
      3          1           0       -0.000000   -0.790319   -0.489101
 ---------------------------------------------------------------------

 SCF Done:  E(RB3LYP) =  -76.2761081545     A.U. after    1 cycles

 The electronic state is 1-A1.
 Alpha  occ. eigenvalues --  -19.11819  -1.00753  -0.51423  -0.36036  -0.28808
 Alpha virt. eigenvalues --    0.04455   0.12647   0.44937   0.66126   0.72801
 Alpha virt. eigenvalues --    1.08105   1.28083   1.29670

 Mulliken charges:
               1
     1  O   -0.578741
     2  H    0.289371
     3  H    0.289371
 Sum of Mulliken charges =   0.00000

 Dipole moment (field-independent basis, Debye):
    X=             -0.0000    Y=             -0.0000    Z=             -2.3699  Tot=              2.3699
 Quadrupole moment (field-independent basis, Debye-Ang):
   XX=             -7.1548   YY=             -4.4443   ZZ=             -6.3435
   XY=              0.0000   XZ=              0.0000   YZ=             -0.0000

  Exact polarizability:   1.928   0.000   7.955  -0.000  -0.000   5.545
 Approx polarizability:   1.861   0.000   9.336   0.000   0.000   6.870

                      1                      2                      3
                     A1                     A1                     B2
 Frequencies --   1662.1549              3456.4665              3583.4289
 Red. masses --      1.0873                 1.0409                 1.0819
 Frc consts  --      1.7699                 7.3269                 8.1854
 IR Inten    --     40.9485                 7.7372                 3.8333

 - Thermochemistry -
 -------------------
 Temperature   298.150 Kelvin.  Pressure   1.00000 Atm.
 Atom     1 has atomic number  8 and mass  15.99491

 Molecular mass:    18.01056 amu.
 Principal axes and moments of inertia in atomic units:
                           1         2         3
     Eigenvalues --     2.38938   4.49592   6.88530
           X            0.00000   0.00000   1.00000
           Y            1.00000   0.00000   0.00000
           Z            0.00000   1.00000   0.00000
 This molecule is an asymmetric top.
 Rotational symmetry number  2.
 Rotational temperatures (Kelvin)     36.24950    19.26500    12.57953
 Rotational constants (GHZ):         755.31798   401.41784   262.11526
 Zero-point vibrational energy      52049.8 (Joules/Mol)
                                   12.44021 (Kcal/Mol)
 Vibrational temperatures:   2391.47  4973.08  5155.75
          (Kelvin)

 Zero-point correction=                           0.019825 (Hartree/Particle)
 Thermal correction to Energy=                    0.022660
 Thermal correction to Enthalpy=                  0.023604
 Thermal correction to Gibbs Free Energy=         0.002073
 Sum of electronic and zero-point Energies=            -76.256283
 Sum of electronic and thermal Energies=               -76.253448
 Sum of electronic and thermal Enthalpies=             -76.252504
 Sum of electronic and thermal Free Energies=          -76.274035

                     E (Thermal)             CV                S
                      KCal/Mol        Cal/Mol-Kelvin    Cal/Mol-Kelvin
 Total                   14.219              6.004             45.316
 Electronic               0.000              0.000              0.000
 Translational            0.889              2.981             34.608
 Rotational               0.889              2.981             10.702
 Vibrational             12.442              0.042              0.006

 Optimization completed.
    -- Stationary point found.
 Normal termination of Gaussian 09 at Thu Mar  9 18:39:34 2017.
