 Gaussian 09, Revision D.01,
 Gaussian 09:  ES64L-G09RevD.01 24-Apr-2013

 ----
 # G4
 ----
 1/14=-1,18=20,19=15,26=3,38=1/1,3;
 2/9=110,12=2,17=6,18=5,40=1/2;
 3/5=35,7=104,11=2,16=1,25=1,30=1,71=1,74=-5/1,2,3;
 4//1;
 5/5=2,38=5/2;

 --------
 BeH2.LOG
 --------
 Symbolic Z-matrix:
 Charge =  0 Multiplicity = 1

 SCF Done:  E(RB3LYP) =  -15.9200370165     A.U. after    9 cycles
 SCF Done:  E(RB3LYP) =  -15.9200422404     A.U. after    6 cycles
 Optimization completed.
    -- Stationary point found.
 Normal termination of Gaussian 09 at Thu Mar  9 16:36:09 2017.

 ----------------------------------------------------------
 #N Geom=AllCheck Guess=TCheck SCRF=Check B3LYP/GTBas3 Freq
 ----------------------------------------------------------

 Structure from the checkpoint file:  "/home/iawad/Gau-18433.chk"
 --------
 BeH2.LOG
 --------
 Charge =  0 Multiplicity = 1

 SCF Done:  E(RB3LYP) =  -15.9200422404     A.U. after    1 cycles

  Exact polarizability:  17.171   0.000  17.171   0.000   0.000  16.719
 Approx polarizability:  20.933   0.000  20.933   0.000   0.000  18.346

                      1                      2                      3
                     PIU                    PIU                    SGG
 Frequencies --    745.2095               745.2095              2054.6626
 Red. masses --      1.2031                 1.2031                 1.0078
 Frc consts  --      0.3937                 0.3937                 2.5068
 IR Inten    --    280.2766               280.2766                 0.0000

                      4
                     SGU
 Frequencies --   2278.3775
 Red. masses --      1.2031
 Frc consts  --      3.6797
 IR Inten    --    191.6961

 - Thermochemistry -
 -------------------
 Temperature   298.150 Kelvin.  Pressure   1.00000 Atm.
 Atom     1 has atomic number  4 and mass   9.01218

 Molecular mass:    11.02783 amu.
 Principal axes and moments of inertia in atomic units:
                           1         2         3
     Eigenvalues --     0.00000  12.65983  12.65983
           X            0.00000   1.00000   0.00000
           Y            0.00000   0.00000   1.00000
           Z            1.00000   0.00000   0.00000
 This molecule is a prolate symmetric top.
 Rotational symmetry number  2.
 Rotational temperature (Kelvin)      6.84163
 Rotational constant (GHZ):         142.556546
 Zero-point vibrational energy      34832.0 (Joules/Mol)
                                    8.32505 (Kcal/Mol)
 Vibrational temperatures:   1072.19  1072.19  2956.20  3278.07
          (Kelvin)

 Zero-point correction=                           0.013267 (Hartree/Particle)
 Thermal correction to Energy=                    0.015819
 Thermal correction to Enthalpy=                  0.016764
 Thermal correction to Gibbs Free Energy=        -0.003084
 Sum of electronic and zero-point Energies=            -15.906775
 Sum of electronic and thermal Energies=               -15.904223
 Sum of electronic and thermal Enthalpies=             -15.903279
 Sum of electronic and thermal Free Energies=          -15.923126

                     E (Thermal)             CV                S
                      KCal/Mol        Cal/Mol-Kelvin    Cal/Mol-Kelvin
 Total                    9.927              6.472             41.772
 Electronic               0.000              0.000              0.000
 Translational            0.889              2.981             33.146
 Rotational               0.592              1.987              8.111
 Vibrational              8.446              1.504              0.515

 Optimization completed.
    -- Stationary point found.
 Normal termination of Gaussian 09 at Thu Mar  9 16:36:14 2017.

 -----------------------------------------------------------------
 #N Geom=AllCheck Guess=TCheck SCRF=Check CCSD(T,E4T,FrzG4)/GTBas1
 -----------------------------------------------------------------

 Structure from the checkpoint file:  "/home/iawad/Gau-18433.chk"
 --------
 BeH2.LOG
 --------
 Charge =  0 Multiplicity = 1

 SCF Done:  E(RHF) =  -15.7658956121     A.U. after    7 cycles
 E2 =    -0.3727090873D-01 EUMP2 =    -0.15803166520875D+02
 CCSD(T)= -0.15816207278D+02
 Q=-15.8147808\CCSD=-15.81579\CCSD(T)=-15.8162073\RMSD=3.295e-09\PG=D*H
 Normal termination of Gaussian 09 at Thu Mar  9 16:36:17 2017.

 ---------------------------------------------------------
 #N Geom=AllCheck Guess=TCheck SCRF=Check MP4=FrzG4/GTBas2
 ---------------------------------------------------------

 Structure from the checkpoint file:  "/home/iawad/Gau-18433.chk"
 --------
 BeH2.LOG
 --------
 Charge =  0 Multiplicity = 1

 SCF Done:  E(RHF) =  -15.7667572776     A.U. after    7 cycles
 E2 =    -0.3738557531D-01 EUMP2 =    -0.15804142852906D+02
 Normal termination of Gaussian 09 at Thu Mar  9 16:36:18 2017.

 ---------------------------------------------------------
 #N Geom=AllCheck Guess=TCheck SCRF=Check MP4=FrzG4/GTBas3
 ---------------------------------------------------------

 Structure from the checkpoint file:  "/home/iawad/Gau-18433.chk"
 --------
 BeH2.LOG
 --------
 Charge =  0 Multiplicity = 1

 SCF Done:  E(RHF) =  -15.7684744577     A.U. after    6 cycles
 E2 =    -0.5473614179D-01 EUMP2 =    -0.15823210599461D+02
 Normal termination of Gaussian 09 at Thu Mar  9 16:36:20 2017.

 -----------------------------------------------------------
 #N Geom=AllCheck Guess=TCheck SCRF=Check MP2=Full/GTLargeXP
 -----------------------------------------------------------

 Structure from the checkpoint file:  "/home/iawad/Gau-18433.chk"
 --------
 BeH2.LOG
 --------
 Charge =  0 Multiplicity = 1

 SCF Done:  E(RHF) =  -15.7713437950     A.U. after    8 cycles
 E2 =    -0.9402231708D-01 EUMP2 =    -0.15865366112126D+02
 Normal termination of Gaussian 09 at Thu Mar  9 16:36:22 2017.
 SCF Done:  E(RHF) =  -15.7729641345     A.U. after    6 cycles
 Normal termination of Gaussian 09 at Thu Mar  9 16:36:25 2017.

                         Standard orientation:
 ---------------------------------------------------------------------
 Center     Atomic      Atomic             Coordinates (Angstroms)
 Number     Number       Type             X           Y           Z
 ---------------------------------------------------------------------
      1          4           0        0.000000    0.000000    0.000000
      2          1           0        0.000000    0.000000    1.326195
      3          1           0        0.000000    0.000000   -1.326195
 ---------------------------------------------------------------------

 SCF Done:  E(RHF) =  -15.7731743403     A.U. after    6 cycles

 The electronic state is 1-SGG.
 Alpha  occ. eigenvalues --   -4.67423  -0.48989  -0.44932
 Alpha virt. eigenvalues --    0.01853   0.01853   0.02388   0.02851   0.06091
 Alpha virt. eigenvalues --    0.06091   0.10740   0.12601   0.17333   0.17333
 Alpha virt. eigenvalues --    0.19660   0.26270   0.33522   0.37144   0.37463

 Mulliken charges:
               1
     1  Be   0.425394
     2  H   -0.212697
     3  H   -0.212697
 Sum of Mulliken charges =   0.00000

 Dipole moment (field-independent basis, Debye):
    X=              0.0000    Y=              0.0000    Z=              0.0000  Tot=              0.0000
 Quadrupole moment (field-independent basis, Debye-Ang):
   XX=             -6.5608   YY=             -6.5608   ZZ=            -12.2332
   XY=              0.0000   XZ=              0.0000   YZ=              0.0000

 Normal termination of Gaussian 09 at Thu Mar  9 16:36:38 2017.
