 Gaussian 09, Revision D.01,
 Gaussian 09:  ES64L-G09RevD.01 24-Apr-2013

 ----
 # G4
 ----
 1/14=-1,18=20,19=15,26=3,38=1/1,3;
 2/9=110,12=2,17=6,18=5,40=1/2;
 3/5=35,7=104,11=2,16=1,25=1,30=1,71=1,74=-5/1,2,3;
 4//1;
 5/5=2,38=5/2;

 -------
 BH3.LOG
 -------
 Symbolic Z-matrix:
 Charge =  0 Multiplicity = 1

 SCF Done:  E(RB3LYP) =  -26.6158435832     A.U. after    8 cycles
 Optimization completed.
    -- Stationary point found.
 Normal termination of Gaussian 09 at Thu Mar  9 16:36:41 2017.

 ----------------------------------------------------------
 #N Geom=AllCheck Guess=TCheck SCRF=Check B3LYP/GTBas3 Freq
 ----------------------------------------------------------

 Structure from the checkpoint file:  "/home/iawad/Gau-19140.chk"
 -------
 BH3.LOG
 -------
 Charge =  0 Multiplicity = 1

 SCF Done:  E(RB3LYP) =  -26.6158435832     A.U. after    1 cycles

  Exact polarizability:  15.943   0.000  15.943   0.000   0.000   9.963
 Approx polarizability:  18.818   0.000  18.818   0.000   0.000  13.770

                      1                      2                      3
                     A2"                    E'                     E'
 Frequencies --   1166.3309              1208.1168              1208.1186
 Red. masses --      1.2531                 1.1074                 1.1074
 Frc consts  --      1.0043                 0.9523                 0.9523
 IR Inten    --     84.2032                12.9839                12.9879

                      4                      5                      6
                     A1'                    E'                     E'
 Frequencies --   2570.6907              2705.3684              2705.3698
 Red. masses --      1.0078                 1.1271                 1.1271
 Frc consts  --      3.9241                 4.8604                 4.8604
 IR Inten    --      0.0000               119.6547               119.6418

 - Thermochemistry -
 -------------------
 Temperature   298.150 Kelvin.  Pressure   1.00000 Atm.
 Atom     1 has atomic number  5 and mass  11.00931

 Molecular mass:    14.03278 amu.
 Principal axes and moments of inertia in atomic units:
                           1         2         3
     Eigenvalues --     7.67467   7.67467  15.34934
           X           -0.58471   0.81124   0.00000
           Y            0.81124   0.58471   0.00000
           Z            0.00000   0.00000   1.00000
 This molecule is an oblate symmetric top.
 Rotational symmetry number  6.
 Rotational temperatures (Kelvin)     11.28567    11.28567     5.64284
 Rotational constants (GHZ):         235.15550   235.15550   117.57775
 Zero-point vibrational energy      69168.1 (Joules/Mol)
                                   16.53156 (Kcal/Mol)
 Vibrational temperatures:   1678.09  1738.21  1738.21  3698.65  3892.42
          (Kelvin)           3892.42

 Zero-point correction=                           0.026345 (Hartree/Particle)
 Thermal correction to Energy=                    0.029229
 Thermal correction to Enthalpy=                  0.030173
 Thermal correction to Gibbs Free Energy=         0.008793
 Sum of electronic and zero-point Energies=            -26.589499
 Sum of electronic and thermal Energies=               -26.586615
 Sum of electronic and thermal Enthalpies=             -26.585670
 Sum of electronic and thermal Free Energies=          -26.607050

                     E (Thermal)             CV                S
                      KCal/Mol        Cal/Mol-Kelvin    Cal/Mol-Kelvin
 Total                   18.341              6.591             44.998
 Electronic               0.000              0.000              0.000
 Translational            0.889              2.981             33.864
 Rotational               0.889              2.981             11.006
 Vibrational             16.564              0.630              0.128

 Optimization completed.
    -- Stationary point found.
 Normal termination of Gaussian 09 at Thu Mar  9 16:36:48 2017.

 -----------------------------------------------------------------
 #N Geom=AllCheck Guess=TCheck SCRF=Check CCSD(T,E4T,FrzG4)/GTBas1
 -----------------------------------------------------------------

 Structure from the checkpoint file:  "/home/iawad/Gau-19140.chk"
 -------
 BH3.LOG
 -------
 Charge =  0 Multiplicity = 1

 SCF Done:  E(RHF) =  -26.3899836641     A.U. after    8 cycles
 E2 =    -0.7425938458D-01 EUMP2 =    -0.26464243048639D+02
 CCSD(T)= -0.26484622945D+02
 2182\CCSD(T)=-26.4846229\RMSD=1.438e-09\PG=D03H [O(B1),3C2(H1)]\\@
 Normal termination of Gaussian 09 at Thu Mar  9 16:36:49 2017.

 ---------------------------------------------------------
 #N Geom=AllCheck Guess=TCheck SCRF=Check MP4=FrzG4/GTBas2
 ---------------------------------------------------------

 Structure from the checkpoint file:  "/home/iawad/Gau-19140.chk"
 -------
 BH3.LOG
 -------
 Charge =  0 Multiplicity = 1

 SCF Done:  E(RHF) =  -26.3906712746     A.U. after    7 cycles
 E2 =    -0.7481107532D-01 EUMP2 =    -0.26465482349872D+02
 Normal termination of Gaussian 09 at Thu Mar  9 16:36:51 2017.

 ---------------------------------------------------------
 #N Geom=AllCheck Guess=TCheck SCRF=Check MP4=FrzG4/GTBas3
 ---------------------------------------------------------

 Structure from the checkpoint file:  "/home/iawad/Gau-19140.chk"
 -------
 BH3.LOG
 -------
 Charge =  0 Multiplicity = 1

 SCF Done:  E(RHF) =  -26.3946485541     A.U. after    8 cycles
 E2 =    -0.1030139307D+00 EUMP2 =    -0.26497662484798D+02
 Normal termination of Gaussian 09 at Thu Mar  9 16:36:53 2017.

 -----------------------------------------------------------
 #N Geom=AllCheck Guess=TCheck SCRF=Check MP2=Full/GTLargeXP
 -----------------------------------------------------------

 Structure from the checkpoint file:  "/home/iawad/Gau-19140.chk"
 -------
 BH3.LOG
 -------
 Charge =  0 Multiplicity = 1

 SCF Done:  E(RHF) =  -26.3993722774     A.U. after    8 cycles
 E2 =    -0.1502487405D+00 EUMP2 =    -0.26549621017937D+02
 Normal termination of Gaussian 09 at Thu Mar  9 16:36:56 2017.
 SCF Done:  E(RHF) =  -26.4019907802     A.U. after    6 cycles
 Normal termination of Gaussian 09 at Thu Mar  9 16:37:00 2017.

                         Standard orientation:
 ---------------------------------------------------------------------
 Center     Atomic      Atomic             Coordinates (Angstroms)
 Number     Number       Type             X           Y           Z
 ---------------------------------------------------------------------
      1          5           0        0.000000    0.000000    0.000000
      2          1           0        0.000000    1.192320    0.000000
      3          1           0        1.032579   -0.596160    0.000000
      4          1           0       -1.032579   -0.596160    0.000000
 ---------------------------------------------------------------------

 SCF Done:  E(RHF) =  -26.4024720483     A.U. after    6 cycles

 The electronic state is 1-A1'.
 Alpha  occ. eigenvalues --   -7.61208  -0.70392  -0.49821  -0.49821
 Alpha virt. eigenvalues --    0.02529   0.03798   0.03798   0.04757   0.07161
 Alpha virt. eigenvalues --    0.15599   0.15599   0.18554   0.20918   0.20918
 Alpha virt. eigenvalues --    0.23433   0.27809   0.33204   0.33204   0.39979

 Mulliken charges:
               1
     1  B    0.028434
     2  H   -0.009478
     3  H   -0.009478
     4  H   -0.009478
 Sum of Mulliken charges =   0.00000

 Dipole moment (field-independent basis, Debye):
    X=              0.0000    Y=              0.0000    Z=              0.0000  Tot=              0.0000
 Quadrupole moment (field-independent basis, Debye-Ang):
   XX=             -9.4331   YY=             -9.4331   ZZ=             -7.1195
   XY=              0.0000   XZ=              0.0000   YZ=              0.0000

 Normal termination of Gaussian 09 at Thu Mar  9 16:37:40 2017.
