 Gaussian 09, Revision E.01,
 Gaussian 09:  ES64L-G09RevE.01 30-Nov-2015

 ----
 # G4
 ----
 1/14=-1,18=20,19=15,26=3,38=1/1,3;
 2/9=110,12=2,17=6,18=5,40=1/2;
 3/5=35,7=104,11=2,16=1,25=1,30=1,71=1,74=-5/1,2,3;
 4//1;
 5/5=2,38=5/2;

 -------
 CF4.LOG
 -------
 Symbolic Z-matrix:
 Charge =  0 Multiplicity = 1

 SCF Done:  E(RB3LYP) =  -437.107682368     A.U. after   10 cycles
 SCF Done:  E(RB3LYP) =  -437.363859758     A.U. after   10 cycles
 SCF Done:  E(RB3LYP) =  -437.501703630     A.U. after   11 cycles
 SCF Done:  E(RB3LYP) =  -437.502017534     A.U. after    7 cycles
 Optimization completed.
    -- Stationary point found.
 Normal termination of Gaussian 09 at Thu Mar  9 19:21:02 2017.

 ----------------------------------------------------------
 #N Geom=AllCheck Guess=TCheck SCRF=Check B3LYP/GTBas3 Freq
 ----------------------------------------------------------

 Structure from the checkpoint file:  "//home/aalrawas/scratch/Gau-30040.chk"
 -------
 CF4.LOG
 -------
 Charge =  0 Multiplicity = 1

 SCF Done:  E(RB3LYP) =  -437.502017534     A.U. after    1 cycles

  Exact polarizability:  15.926   0.000  15.926   0.000   0.000  15.926
 Approx polarizability:  21.603  -0.000  21.603   0.000  -0.000  21.603

                      1                      2                      3
                      E                      E                     T2
 Frequencies --    429.7908               429.7908               626.2063
 Red. masses --     18.9984                18.9984                18.1688
 Frc consts  --      2.0677                 2.0677                 4.1977
 IR Inten    --      0.0000                 0.0000                 4.1118

                      4                      5                      6
                     T2                     T2                     A1
 Frequencies --    626.2063               626.2063               915.9383
 Red. masses --     18.1688                18.1688                18.9984
 Frc consts  --      4.1977                 4.1977                 9.3907
 IR Inten    --      4.1118                 4.1118                 0.0000

                      7                      8                      9
                     T2                     T2                     T2
 Frequencies --   1291.1365              1291.1365              1291.1365
 Red. masses --     13.0304                13.0304                13.0304
 Frc consts  --     12.7983                12.7983                12.7983
 IR Inten    --    354.5303               354.5303               354.5303

 - Thermochemistry -
 -------------------
 Temperature   298.150 Kelvin.  Pressure   1.00000 Atm.
 Atom     1 has atomic number  6 and mass  12.00000

 Molecular mass:    87.99361 amu.
 Principal axes and moments of inertia in atomic units:
                           1         2         3
     Eigenvalues --   315.78134 315.78134 315.78134
           X           -0.00000   0.00000   1.00000
           Y            1.00000   0.00000  -0.00000
           Z           -0.00000   1.00000  -0.00000
 This molecule is a spherical top.
 Rotational symmetry number 12.
 Rotational temperatures (Kelvin)      0.27428     0.27428     0.27428
 Rotational constants (GHZ):           5.71516     5.71516     5.71516
 Zero-point vibrational energy      45024.7 (Joules/Mol)
                                   10.76117 (Kcal/Mol)
 Warning -- explicit consideration of   2 degrees of freedom as
           vibrations may cause significant error
 Vibrational temperatures:    618.37   618.37   900.97   900.97   900.97
          (Kelvin)           1317.83  1857.66  1857.66  1857.66

 Zero-point correction=                           0.017149 (Hartree/Particle)
 Thermal correction to Energy=                    0.021068
 Thermal correction to Enthalpy=                  0.022013
 Thermal correction to Gibbs Free Energy=        -0.007688
 Sum of electronic and zero-point Energies=           -437.484869
 Sum of electronic and thermal Energies=              -437.480949
 Sum of electronic and thermal Enthalpies=            -437.480005
 Sum of electronic and thermal Free Energies=         -437.509706

                     E (Thermal)             CV                S
                      KCal/Mol        Cal/Mol-Kelvin    Cal/Mol-Kelvin
 Total                   13.221             12.639             62.511
 Electronic               0.000              0.000              0.000
 Translational            0.889              2.981             39.337
 Rotational               0.889              2.981             20.020
 Vibrational             11.443              6.677              3.155
 Vibration     1          0.791              1.405              0.859
 Vibration     2          0.791              1.405              0.859

 Optimization completed.
    -- Stationary point found.
 Normal termination of Gaussian 09 at Thu Mar  9 19:21:51 2017.

 -----------------------------------------------------------------
 #N Geom=AllCheck Guess=TCheck SCRF=Check CCSD(T,E4T,FrzG4)/GTBas1
 -----------------------------------------------------------------

 Structure from the checkpoint file:  "//home/aalrawas/scratch/Gau-30040.chk"
 -------
 CF4.LOG
 -------
 Charge =  0 Multiplicity = 1

 SCF Done:  E(RHF) =  -435.643343496     A.U. after    9 cycles
 E2 =    -0.8038135144D+00 EUMP2 =    -0.43644715701059D+03
 CCSD(T)= -0.43647122838D+03
 =-436.4530921\CCSD(T)=-436.4712284\RMSD=2.741e-09\PG=TD [O(C1),4C3(F1)
 Normal termination of Gaussian 09 at Thu Mar  9 19:22:52 2017.

 ---------------------------------------------------------
 #N Geom=AllCheck Guess=TCheck SCRF=Check MP4=FrzG4/GTBas2
 ---------------------------------------------------------

 Structure from the checkpoint file:  "//home/aalrawas/scratch/Gau-30040.chk"
 -------
 CF4.LOG
 -------
 Charge =  0 Multiplicity = 1

 SCF Done:  E(RHF) =  -435.656393679     A.U. after    9 cycles
 E2 =    -0.8207295667D+00 EUMP2 =    -0.43647712324530D+03
 Normal termination of Gaussian 09 at Thu Mar  9 19:23:49 2017.

 ---------------------------------------------------------
 #N Geom=AllCheck Guess=TCheck SCRF=Check MP4=FrzG4/GTBas3
 ---------------------------------------------------------

 Structure from the checkpoint file:  "//home/aalrawas/scratch/Gau-30040.chk"
 -------
 CF4.LOG
 -------
 Charge =  0 Multiplicity = 1

 SCF Done:  E(RHF) =  -435.665891385     A.U. after    9 cycles
 E2 =    -0.1041756288D+01 EUMP2 =    -0.43670764767286D+03
 Normal termination of Gaussian 09 at Thu Mar  9 19:28:55 2017.

 -----------------------------------------------------------
 #N Geom=AllCheck Guess=TCheck SCRF=Check MP2=Full/GTLargeXP
 -----------------------------------------------------------

 Structure from the checkpoint file:  "//home/aalrawas/scratch/Gau-30040.chk"
 -------
 CF4.LOG
 -------
 Charge =  0 Multiplicity = 1

 SCF Done:  E(RHF) =  -435.806537344     A.U. after    9 cycles
 E2 =    -0.1396235555D+01 EUMP2 =    -0.43720277289857D+03
 Normal termination of Gaussian 09 at Thu Mar  9 19:29:29 2017.
 SCF Done:  E(RHF) =  -435.850066676     A.U. after    7 cycles
 Normal termination of Gaussian 09 at Thu Mar  9 19:30:19 2017.

                         Standard orientation:
 ---------------------------------------------------------------------
 Center     Atomic      Atomic             Coordinates (Angstroms)
 Number     Number       Type             X           Y           Z
 ---------------------------------------------------------------------
      1          6           0        0.000000    0.000000    0.000000
      2          9           0        0.762765    0.762765    0.762765
      3          9           0       -0.762765   -0.762765    0.762765
      4          9           0       -0.762765    0.762765   -0.762765
      5          9           0        0.762765   -0.762765   -0.762765
 ---------------------------------------------------------------------

 SCF Done:  E(RHF) =  -435.859195363     A.U. after    7 cycles

 The electronic state is 1-A1.
 Alpha  occ. eigenvalues --  -26.37229 -26.37229 -26.37229 -26.37225 -11.60965
 Alpha  occ. eigenvalues --   -1.80285  -1.67847  -1.67847  -1.67847  -1.01073
 Alpha  occ. eigenvalues --   -0.88891  -0.88891  -0.88891  -0.76459  -0.76459
 Alpha  occ. eigenvalues --   -0.71244  -0.71244  -0.71244  -0.68533  -0.68533
 Alpha  occ. eigenvalues --   -0.68533
 Alpha virt. eigenvalues --    0.05417   0.05417   0.05417   0.05546   0.13385
 Alpha virt. eigenvalues --    0.13385   0.13385   0.15915   0.15915   0.19220
 Alpha virt. eigenvalues --    0.19220   0.19220   0.21097   0.21373   0.21373

 Mulliken charges:
               1
     1  C    0.969406
     2  F   -0.242352
     3  F   -0.242352
     4  F   -0.242352
     5  F   -0.242352
 Sum of Mulliken charges =  -0.00000

 Dipole moment (field-independent basis, Debye):
    X=             -0.0000    Y=              0.0000    Z=             -0.0000  Tot=              0.0000
 Quadrupole moment (field-independent basis, Debye-Ang):
   XX=            -25.4496   YY=            -25.4496   ZZ=            -25.4496
   XY=             -0.0000   XZ=             -0.0000   YZ=             -0.0000

 Normal termination of Gaussian 09 at Thu Mar  9 19:36:44 2017.
