 Gaussian 09, Revision D.01,
 Gaussian 09:  ES64L-G09RevD.01 24-Apr-2013

 ----
 # G4
 ----
 1/14=-1,18=20,19=15,26=3,38=1/1,3;
 2/9=110,12=2,17=6,18=5,40=1/2;
 3/5=35,7=104,11=2,16=1,25=1,30=1,71=1,74=-5/1,2,3;
 4//1;
 5/5=2,38=5/2;

 -------
 CH4.LOG
 -------
 Symbolic Z-matrix:
 Charge =  0 Multiplicity = 1

 SCF Done:  E(RB3LYP) =  -40.5236859633     A.U. after    8 cycles
 Optimization completed.
    -- Stationary point found.
 Normal termination of Gaussian 09 at Thu Mar  9 16:37:42 2017.

 ----------------------------------------------------------
 #N Geom=AllCheck Guess=TCheck SCRF=Check B3LYP/GTBas3 Freq
 ----------------------------------------------------------

 Structure from the checkpoint file:  "/home/iawad/Gau-20205.chk"
 -------
 CH4.LOG
 -------
 Charge =  0 Multiplicity = 1

 SCF Done:  E(RB3LYP) =  -40.5236859633     A.U. after    1 cycles

  Exact polarizability:  13.212   0.000  13.212   0.000   0.000  13.212
 Approx polarizability:  16.420   0.000  16.420   0.000   0.000  16.420

                      1                      2                      3
                     T2                     T2                     T2
 Frequencies --   1341.9319              1341.9319              1341.9319
 Red. masses --      1.1799                 1.1799                 1.1799
 Frc consts  --      1.2519                 1.2519                 1.2519
 IR Inten    --     10.8374                10.8374                10.8374

                      4                      5                      6
                      E                      E                     A1
 Frequencies --   1563.6899              1563.6899              3038.0120
 Red. masses --      1.0078                 1.0078                 1.0078
 Frc consts  --      1.4519                 1.4519                 5.4804
 IR Inten    --      0.0000                 0.0000                 0.0000

                      7                      8                      9
                     T2                     T2                     T2
 Frequencies --   3151.8565              3151.8565              3151.8565
 Red. masses --      1.1008                 1.1008                 1.1008
 Frc consts  --      6.4432                 6.4432                 6.4432
 IR Inten    --     22.0719                22.0719                22.0719

 - Thermochemistry -
 -------------------
 Temperature   298.150 Kelvin.  Pressure   1.00000 Atm.
 Atom     1 has atomic number  6 and mass  12.00000

 Molecular mass:    16.03130 amu.
 Principal axes and moments of inertia in atomic units:
                           1         2         3
     Eigenvalues --    11.44390  11.44390  11.44390
           X            0.35320   0.93555   0.00000
           Y            0.93555  -0.35320   0.00000
           Z            0.00000   0.00000   1.00000
 This molecule is a spherical top.
 Rotational symmetry number 12.
 Rotational temperatures (Kelvin)      7.56856     7.56856     7.56856
 Rotational constants (GHZ):         157.70330   157.70330   157.70330
 Zero-point vibrational energy     117513.7 (Joules/Mol)
                                   28.08645 (Kcal/Mol)
 Vibrational temperatures:   1930.74  1930.74  1930.74  2249.80  2249.80
          (Kelvin)           4371.02  4534.81  4534.81  4534.81

 Zero-point correction=                           0.044759 (Hartree/Particle)
 Thermal correction to Energy=                    0.047627
 Thermal correction to Enthalpy=                  0.048571
 Thermal correction to Gibbs Free Energy=         0.027438
 Sum of electronic and zero-point Energies=            -40.478927
 Sum of electronic and thermal Energies=               -40.476059
 Sum of electronic and thermal Enthalpies=             -40.475115
 Sum of electronic and thermal Free Energies=          -40.496248

                     E (Thermal)             CV                S
                      KCal/Mol        Cal/Mol-Kelvin    Cal/Mol-Kelvin
 Total                   29.886              6.468             44.479
 Electronic               0.000              0.000              0.000
 Translational            0.889              2.981             34.261
 Rotational               0.889              2.981             10.130
 Vibrational             28.109              0.506              0.087

 Optimization completed.
    -- Stationary point found.
 Normal termination of Gaussian 09 at Thu Mar  9 16:37:52 2017.

 -----------------------------------------------------------------
 #N Geom=AllCheck Guess=TCheck SCRF=Check CCSD(T,E4T,FrzG4)/GTBas1
 -----------------------------------------------------------------

 Structure from the checkpoint file:  "/home/iawad/Gau-20205.chk"
 -------
 CH4.LOG
 -------
 Charge =  0 Multiplicity = 1

 SCF Done:  E(RHF) =  -40.1949822759     A.U. after    7 cycles
 E2 =    -0.1375604764D+00 EUMP2 =    -0.40332542752351D+02
 CCSD(T)= -0.40355898636D+02
 35231\CCSD=-40.3530483\CCSD(T)=-40.3558986\RMSD=6.055e-09\PG=TD [O(C1)
 Normal termination of Gaussian 09 at Thu Mar  9 16:37:54 2017.

 ---------------------------------------------------------
 #N Geom=AllCheck Guess=TCheck SCRF=Check MP4=FrzG4/GTBas2
 ---------------------------------------------------------

 Structure from the checkpoint file:  "/home/iawad/Gau-20205.chk"
 -------
 CH4.LOG
 -------
 Charge =  0 Multiplicity = 1

 SCF Done:  E(RHF) =  -40.1954933234     A.U. after    8 cycles
 E2 =    -0.1385859620D+00 EUMP2 =    -0.40334079285362D+02
 Normal termination of Gaussian 09 at Thu Mar  9 16:37:56 2017.

 ---------------------------------------------------------
 #N Geom=AllCheck Guess=TCheck SCRF=Check MP4=FrzG4/GTBas3
 ---------------------------------------------------------

 Structure from the checkpoint file:  "/home/iawad/Gau-20205.chk"
 -------
 CH4.LOG
 -------
 Charge =  0 Multiplicity = 1

 SCF Done:  E(RHF) =  -40.2032886263     A.U. after    8 cycles
 E2 =    -0.1815964161D+00 EUMP2 =    -0.40384885042369D+02
 Normal termination of Gaussian 09 at Thu Mar  9 16:37:58 2017.

 -----------------------------------------------------------
 #N Geom=AllCheck Guess=TCheck SCRF=Check MP2=Full/GTLargeXP
 -----------------------------------------------------------

 Structure from the checkpoint file:  "/home/iawad/Gau-20205.chk"
 -------
 CH4.LOG
 -------
 Charge =  0 Multiplicity = 1

 SCF Done:  E(RHF) =  -40.2122005456     A.U. after    8 cycles
 E2 =    -0.2372065546D+00 EUMP2 =    -0.40449407100185D+02
 Normal termination of Gaussian 09 at Thu Mar  9 16:38:02 2017.
 SCF Done:  E(RHF) =  -40.2158263963     A.U. after    6 cycles
 Normal termination of Gaussian 09 at Thu Mar  9 16:38:06 2017.

                         Standard orientation:
 ---------------------------------------------------------------------
 Center     Atomic      Atomic             Coordinates (Angstroms)
 Number     Number       Type             X           Y           Z
 ---------------------------------------------------------------------
      1          6           0        0.000000    0.000000    0.000000
      2          1           0        0.630450    0.630450    0.630450
      3          1           0       -0.630450   -0.630450    0.630450
      4          1           0       -0.630450    0.630450   -0.630450
      5          1           0        0.630450   -0.630450   -0.630450
 ---------------------------------------------------------------------

 SCF Done:  E(RHF) =  -40.2166831887     A.U. after    7 cycles

 The electronic state is 1-A1.
 Alpha  occ. eigenvalues --  -11.20717  -0.94140  -0.54422  -0.54422  -0.54422
 Alpha virt. eigenvalues --    0.05444   0.06267   0.06267   0.06267   0.18518
 Alpha virt. eigenvalues --    0.18518   0.18518   0.22679   0.27094   0.27094
 Alpha virt. eigenvalues --    0.27094   0.44648   0.45557   0.45557   0.45557

 Mulliken charges:
               1
     1  C   -0.680272
     2  H    0.170068
     3  H    0.170068
     4  H    0.170068
     5  H    0.170068
 Sum of Mulliken charges =   0.00000

 Dipole moment (field-independent basis, Debye):
    X=              0.0000    Y=              0.0000    Z=              0.0000  Tot=              0.0000
 Quadrupole moment (field-independent basis, Debye-Ang):
   XX=             -8.4220   YY=             -8.4220   ZZ=             -8.4220
   XY=              0.0000   XZ=              0.0000   YZ=              0.0000

 Normal termination of Gaussian 09 at Thu Mar  9 16:38:54 2017.
