 Gaussian 09, Revision D.01,
 Gaussian 09:  ES64L-G09RevD.01 24-Apr-2013

 ----
 # G4
 ----
 1/14=-1,18=20,19=15,26=3,38=1/1,3;
 2/9=110,12=2,17=6,18=5,40=1/2;
 3/5=35,7=104,11=2,16=1,25=1,30=1,71=1,74=-5/1,2,3;
 4//1;
 5/5=2,38=5/2;

 -------
 FLi.LOG
 -------
 Symbolic Z-matrix:
 Charge =  0 Multiplicity = 1

 SCF Done:  E(RB3LYP) =  -106.924323544     A.U. after   11 cycles
 SCF Done:  E(RB3LYP) =  -107.176473922     A.U. after    9 cycles
 SCF Done:  E(RB3LYP) =  -107.432422691     A.U. after    9 cycles
 SCF Done:  E(RB3LYP) =  -107.432493306     A.U. after    7 cycles
 SCF Done:  E(RB3LYP) =  -107.432522994     A.U. after    7 cycles
 Optimization completed.
    -- Stationary point found.
 Normal termination of Gaussian 09 at Thu Mar  9 20:12:19 2017.

 ----------------------------------------------------------
 #N Geom=AllCheck Guess=TCheck SCRF=Check B3LYP/GTBas3 Freq
 ----------------------------------------------------------

 Structure from the checkpoint file:  "/home/iawad/Gau-12073.chk"
 -------
 FLi.LOG
 -------
 Charge =  0 Multiplicity = 1

 SCF Done:  E(RB3LYP) =  -107.432522994     A.U. after    1 cycles

  Exact polarizability:  10.410   0.000  10.410   0.000   0.000   8.542
 Approx polarizability:  10.801   0.000  10.801   0.000   0.000  10.154

                      1
                     SG
 Frequencies --    992.1230
 Red. masses --      8.4540
 Frc consts  --      4.9028
 IR Inten    --     96.3124

 - Thermochemistry -
 -------------------
 Temperature   298.150 Kelvin.  Pressure   1.00000 Atm.
 Atom     1 has atomic number  9 and mass  18.99840

 Molecular mass:    26.01441 amu.
 Principal axes and moments of inertia in atomic units:
                           1         2         3
     Eigenvalues --     0.00000  44.70823  44.70823
           X            0.00000   0.00000   1.00000
           Y            0.00000   1.00000   0.00000
           Z            1.00000   0.00000   0.00000
 This molecule is a prolate symmetric top.
 Rotational symmetry number  1.
 Rotational temperature (Kelvin)      1.93731
 Rotational constant (GHZ):          40.367092
 Zero-point vibrational energy       5934.2 (Joules/Mol)
                                    1.41831 (Kcal/Mol)
 Vibrational temperatures:   1427.44
          (Kelvin)

 Zero-point correction=                           0.002260 (Hartree/Particle)
 Thermal correction to Energy=                    0.004659
 Thermal correction to Enthalpy=                  0.005603
 Thermal correction to Gibbs Free Energy=        -0.017107
 Sum of electronic and zero-point Energies=           -107.430263
 Sum of electronic and thermal Energies=              -107.427864
 Sum of electronic and thermal Enthalpies=            -107.426920
 Sum of electronic and thermal Free Energies=         -107.449630

                     E (Thermal)             CV                S
                      KCal/Mol        Cal/Mol-Kelvin    Cal/Mol-Kelvin
 Total                    2.923              5.354             47.796
 Electronic               0.000              0.000              0.000
 Translational            0.889              2.981             35.704
 Rotational               0.592              1.987             11.995
 Vibrational              1.442              0.386              0.097

 Optimization completed.
    -- Stationary point found.
 Normal termination of Gaussian 09 at Thu Mar  9 20:12:27 2017.

 -----------------------------------------------------------------
 #N Geom=AllCheck Guess=TCheck SCRF=Check CCSD(T,E4T,FrzG4)/GTBas1
 -----------------------------------------------------------------

 Structure from the checkpoint file:  "/home/iawad/Gau-12073.chk"
 -------
 FLi.LOG
 -------
 Charge =  0 Multiplicity = 1

 SCF Done:  E(RHF) =  -106.934202500     A.U. after   10 cycles
 E2 =    -0.1921105923D+00 EUMP2 =    -0.10712631309192D+03
 CCSD(T)= -0.10712883829D+03
 05\CCSD=-107.1260395\CCSD(T)=-107.1288383\RMSD=1.336e-09\PG=C*V [C*(Li
 Normal termination of Gaussian 09 at Thu Mar  9 20:12:29 2017.

 ---------------------------------------------------------
 #N Geom=AllCheck Guess=TCheck SCRF=Check MP4=FrzG4/GTBas2
 ---------------------------------------------------------

 Structure from the checkpoint file:  "/home/iawad/Gau-12073.chk"
 -------
 FLi.LOG
 -------
 Charge =  0 Multiplicity = 1

 SCF Done:  E(RHF) =  -106.946322261     A.U. after   10 cycles
 E2 =    -0.1983381787D+00 EUMP2 =    -0.10714466043939D+03
 Normal termination of Gaussian 09 at Thu Mar  9 20:12:30 2017.

 ---------------------------------------------------------
 #N Geom=AllCheck Guess=TCheck SCRF=Check MP4=FrzG4/GTBas3
 ---------------------------------------------------------

 Structure from the checkpoint file:  "/home/iawad/Gau-12073.chk"
 -------
 FLi.LOG
 -------
 Charge =  0 Multiplicity = 1

 SCF Done:  E(RHF) =  -106.943634736     A.U. after    9 cycles
 E2 =    -0.2519971541D+00 EUMP2 =    -0.10719563189041D+03
 Normal termination of Gaussian 09 at Thu Mar  9 20:12:34 2017.

 -----------------------------------------------------------
 #N Geom=AllCheck Guess=TCheck SCRF=Check MP2=Full/GTLargeXP
 -----------------------------------------------------------

 Structure from the checkpoint file:  "/home/iawad/Gau-12073.chk"
 -------
 FLi.LOG
 -------
 Charge =  0 Multiplicity = 1

 SCF Done:  E(RHF) =  -106.979379240     A.U. after    9 cycles
 E2 =    -0.3627265270D+00 EUMP2 =    -0.10734210576717D+03
 Normal termination of Gaussian 09 at Thu Mar  9 20:12:39 2017.
 SCF Done:  E(RHF) =  -106.990959450     A.U. after    8 cycles
 Normal termination of Gaussian 09 at Thu Mar  9 20:12:47 2017.

                         Standard orientation:
 ---------------------------------------------------------------------
 Center     Atomic      Atomic             Coordinates (Angstroms)
 Number     Number       Type             X           Y           Z
 ---------------------------------------------------------------------
      1          9           0        0.000000    0.000000    0.390785
      2          3           0        0.000000    0.000000   -1.172356
 ---------------------------------------------------------------------

 SCF Done:  E(RHF) =  -106.993059987     A.U. after    7 cycles

 The electronic state is 1-SG.
 Alpha  occ. eigenvalues --  -26.11044  -2.43190  -1.37796  -0.50010  -0.47621
 Alpha  occ. eigenvalues --   -0.47621
 Alpha virt. eigenvalues --   -0.01016   0.01517   0.01517   0.01737   0.02388
 Alpha virt. eigenvalues --    0.04954   0.04954   0.06273   0.09104   0.12100
 Alpha virt. eigenvalues --    0.12100   0.15168   0.16586   0.16586   0.17479

 Mulliken charges:
               1
     1  F   -0.807258
     2  Li   0.807258
 Sum of Mulliken charges =   0.00000

 Dipole moment (field-independent basis, Debye):
    X=              0.0000    Y=              0.0000    Z=             -6.4527  Tot=              6.4527
 Quadrupole moment (field-independent basis, Debye-Ang):
   XX=             -7.0146   YY=             -7.0146   ZZ=             -0.7118
   XY=              0.0000   XZ=              0.0000   YZ=              0.0000

 Normal termination of Gaussian 09 at Thu Mar  9 20:15:38 2017.
