 Gaussian 09, Revision D.01,
 Gaussian 09:  ES64L-G09RevD.01 24-Apr-2013

 ----
 # G4
 ----
 1/14=-1,18=20,19=15,26=3,38=1/1,3;
 2/9=110,12=2,17=6,18=5,40=1/2;
 3/5=35,7=104,11=2,16=1,25=1,30=1,71=1,74=-5/1,2,3;
 4//1;
 5/5=2,38=5/2;

 -------
 NH3.LOG
 -------
 Symbolic Z-matrix:
 Charge =  0 Multiplicity = 1

 SCF Done:  E(RB3LYP) =  -56.5602368980     A.U. after   10 cycles
 SCF Done:  E(RB3LYP) =  -56.5602453287     A.U. after    7 cycles
 Optimization completed.
    -- Stationary point found.
 Normal termination of Gaussian 09 at Thu Mar  9 16:40:09 2017.

 ----------------------------------------------------------
 #N Geom=AllCheck Guess=TCheck SCRF=Check B3LYP/GTBas3 Freq
 ----------------------------------------------------------

 Structure from the checkpoint file:  "/home/iawad/Gau-23158.chk"
 -------
 NH3.LOG
 -------
 Charge =  0 Multiplicity = 1

 SCF Done:  E(RB3LYP) =  -56.5602453287     A.U. after    1 cycles

  Exact polarizability:  10.430   0.001   7.495   0.000   0.000  10.430
 Approx polarizability:  13.291   0.001   9.387   0.000   0.000  13.291

                      1                      2                      3
                     A'                     A"                     A'
 Frequencies --   1099.9654              1683.4317              1683.6661
 Red. masses --      1.1795                 1.0642                 1.0642
 Frc consts  --      0.8408                 1.7769                 1.7774
 IR Inten    --    126.5189                13.6595                13.6573

                      4                      5                      6
                     A'                     A"                     A'
 Frequencies --   3462.9938              3579.8848              3580.2161
 Red. masses --      1.0276                 1.0878                 1.0879
 Frc consts  --      7.2605                 8.2140                 8.2157
 IR Inten    --      0.5398                 0.1008                 0.1027

 - Thermochemistry -
 -------------------
 Temperature   298.150 Kelvin.  Pressure   1.00000 Atm.
 Atom     1 has atomic number  7 and mass  14.00307

 Molecular mass:    17.02655 amu.
 Principal axes and moments of inertia in atomic units:
                           1         2         3
     Eigenvalues --     6.13994   6.14081   9.42879
           X            1.00000   0.00000  -0.00025
           Y            0.00025   0.00000   1.00000
           Z            0.00000   1.00000   0.00000
 This molecule is an asymmetric top.
 Rotational symmetry number  1.
 Rotational temperatures (Kelvin)     14.10662    14.10463     9.18610
 Rotational constants (GHZ):         293.93452   293.89309   191.40749
 Zero-point vibrational energy      90259.2 (Joules/Mol)
                                   21.57246 (Kcal/Mol)
 Vibrational temperatures:   1582.60  2422.08  2422.42  4982.47  5150.65
          (Kelvin)           5151.13

 Zero-point correction=                           0.034378 (Hartree/Particle)
 Thermal correction to Energy=                    0.037240
 Thermal correction to Enthalpy=                  0.038184
 Thermal correction to Gibbs Free Energy=         0.015305
 Sum of electronic and zero-point Energies=            -56.525867
 Sum of electronic and thermal Energies=               -56.523005
 Sum of electronic and thermal Enthalpies=             -56.522061
 Sum of electronic and thermal Free Energies=          -56.544940

                     E (Thermal)             CV                S
                      KCal/Mol        Cal/Mol-Kelvin    Cal/Mol-Kelvin
 Total                   23.368              6.319             48.153
 Electronic               0.000              0.000              0.000
 Translational            0.889              2.981             34.441
 Rotational               0.889              2.981             13.639
 Vibrational             21.591              0.358              0.073

 Optimization completed.
    -- Stationary point found.
 Normal termination of Gaussian 09 at Thu Mar  9 16:40:19 2017.

 -----------------------------------------------------------------
 #N Geom=AllCheck Guess=TCheck SCRF=Check CCSD(T,E4T,FrzG4)/GTBas1
 -----------------------------------------------------------------

 Structure from the checkpoint file:  "/home/iawad/Gau-23158.chk"
 -------
 NH3.LOG
 -------
 Charge =  0 Multiplicity = 1

 SCF Done:  E(RHF) =  -56.1837591328     A.U. after   10 cycles
 E2 =    -0.1704065940D+00 EUMP2 =    -0.56354165726897D+02
 CCSD(T)= -0.56372026118D+02
 P4SDTQ=-56.3712458\MP4SDQ=-56.3689174\CCSD=-56.369497\CCSD(T)=-56.3720
 Normal termination of Gaussian 09 at Thu Mar  9 16:40:21 2017.

 ---------------------------------------------------------
 #N Geom=AllCheck Guess=TCheck SCRF=Check MP4=FrzG4/GTBas2
 ---------------------------------------------------------

 Structure from the checkpoint file:  "/home/iawad/Gau-23158.chk"
 -------
 NH3.LOG
 -------
 Charge =  0 Multiplicity = 1

 SCF Done:  E(RHF) =  -56.1886607399     A.U. after   10 cycles
 E2 =    -0.1741545845D+00 EUMP2 =    -0.56362815324421D+02
 Normal termination of Gaussian 09 at Thu Mar  9 16:40:23 2017.

 ---------------------------------------------------------
 #N Geom=AllCheck Guess=TCheck SCRF=Check MP4=FrzG4/GTBas3
 ---------------------------------------------------------

 Structure from the checkpoint file:  "/home/iawad/Gau-23158.chk"
 -------
 NH3.LOG
 -------
 Charge =  0 Multiplicity = 1

 SCF Done:  E(RHF) =  -56.1985870789     A.U. after   10 cycles
 E2 =    -0.2162937883D+00 EUMP2 =    -0.56414880867135D+02
 Normal termination of Gaussian 09 at Thu Mar  9 16:40:25 2017.

 -----------------------------------------------------------
 #N Geom=AllCheck Guess=TCheck SCRF=Check MP2=Full/GTLargeXP
 -----------------------------------------------------------

 Structure from the checkpoint file:  "/home/iawad/Gau-23158.chk"
 -------
 NH3.LOG
 -------
 Charge =  0 Multiplicity = 1

 SCF Done:  E(RHF) =  -56.2181441582     A.U. after   10 cycles
 E2 =    -0.2777915569D+00 EUMP2 =    -0.56495935715111D+02
 Normal termination of Gaussian 09 at Thu Mar  9 16:40:29 2017.
 SCF Done:  E(RHF) =  -56.2229428848     A.U. after    8 cycles
 Normal termination of Gaussian 09 at Thu Mar  9 16:40:33 2017.

                         Standard orientation:
 ---------------------------------------------------------------------
 Center     Atomic      Atomic             Coordinates (Angstroms)
 Number     Number       Type             X           Y           Z
 ---------------------------------------------------------------------
      1          7           0        0.000000    0.120220    0.000000
      2          1           0        0.934536   -0.280350    0.000000
      3          1           0       -0.467268   -0.280596    0.809257
      4          1           0       -0.467268   -0.280596   -0.809257
 ---------------------------------------------------------------------

 SCF Done:  E(RHF) =  -56.2241608541     A.U. after    8 cycles

 The electronic state is 1-A'.
 Alpha  occ. eigenvalues --  -15.54216  -1.14182  -0.62508  -0.62503  -0.43313
 Alpha virt. eigenvalues --    0.06207   0.07993   0.07993   0.10366   0.19869
 Alpha virt. eigenvalues --    0.19870   0.22426   0.34725   0.34725   0.38644
 Alpha virt. eigenvalues --    0.51082   0.51085   0.51679   0.56960   0.56963

 Mulliken charges:
               1
     1  N   -0.839466
     2  H    0.279839
     3  H    0.279813
     4  H    0.279813
 Sum of Mulliken charges =   0.00000

 Dipole moment (field-independent basis, Debye):
    X=              0.0001    Y=             -1.6998    Z=              0.0000  Tot=              1.6998
 Quadrupole moment (field-independent basis, Debye-Ang):
   XX=             -6.2564   YY=             -9.2191   ZZ=             -6.2571
   XY=              0.0006   XZ=              0.0000   YZ=              0.0000

 Normal termination of Gaussian 09 at Thu Mar  9 16:41:40 2017.
