 Gaussian 09, Revision D.01,
 Gaussian 09:  ES64L-G09RevD.01 24-Apr-2013

 ----
 # G4
 ----
 1/14=-1,18=20,19=15,26=3,38=1/1,3;
 2/9=110,12=2,17=6,18=5,40=1/2;
 3/5=35,7=104,11=2,16=1,25=1,30=1,71=1,74=-5/1,2,3;
 4//1;
 5/5=2,38=5/2;

 -------
 OH2.LOG
 -------
 Symbolic Z-matrix:
 Charge =  0 Multiplicity = 1

 SCF Done:  E(RB3LYP) =  -76.4260587098     A.U. after    9 cycles
 SCF Done:  E(RB3LYP) =  -76.4260765891     A.U. after    7 cycles
 SCF Done:  E(RB3LYP) =  -76.4260770628     A.U. after    6 cycles
 Optimization completed.
    -- Stationary point found.
 Normal termination of Gaussian 09 at Thu Mar  9 16:41:47 2017.

 ----------------------------------------------------------
 #N Geom=AllCheck Guess=TCheck SCRF=Check B3LYP/GTBas3 Freq
 ----------------------------------------------------------

 Structure from the checkpoint file:  "/home/iawad/Gau-24650.chk"
 -------
 OH2.LOG
 -------
 Charge =  0 Multiplicity = 1

 SCF Done:  E(RB3LYP) =  -76.4260770628     A.U. after    1 cycles

  Exact polarizability:   4.492   0.000   8.050   0.000   0.000   6.399
 Approx polarizability:   5.265   0.000  10.303   0.000   0.000   8.444

                      1                      2                      3
                     A1                     A1                     B2
 Frequencies --   1671.4918              3803.4605              3907.4956
 Red. masses --      1.0827                 1.0452                 1.0811
 Frc consts  --      1.7822                 8.9082                 9.7253
 IR Inten    --     71.9122                 2.6846                27.6079

 - Thermochemistry -
 -------------------
 Temperature   298.150 Kelvin.  Pressure   1.00000 Atm.
 Atom     1 has atomic number  8 and mass  15.99491

 Molecular mass:    18.01056 amu.
 Principal axes and moments of inertia in atomic units:
                           1         2         3
     Eigenvalues --     2.25736   4.12121   6.37857
           X            0.00000   0.00000   1.00000
           Y            1.00000   0.00000   0.00000
           Z            0.00000   1.00000   0.00000
 This molecule is an asymmetric top.
 Rotational symmetry number  2.
 Rotational temperatures (Kelvin)     38.36956    21.01658    13.57887
 Rotational constants (GHZ):         799.49280   437.91503   282.93818
 Zero-point vibrational energy      56119.5 (Joules/Mol)
                                   13.41288 (Kcal/Mol)
 Vibrational temperatures:   2404.90  5472.32  5622.01
          (Kelvin)

 Zero-point correction=                           0.021375 (Hartree/Particle)
 Thermal correction to Energy=                    0.024210
 Thermal correction to Enthalpy=                  0.025154
 Thermal correction to Gibbs Free Energy=         0.003727
 Sum of electronic and zero-point Energies=            -76.404702
 Sum of electronic and thermal Energies=               -76.401867
 Sum of electronic and thermal Enthalpies=             -76.400923
 Sum of electronic and thermal Free Energies=          -76.422350

                     E (Thermal)             CV                S
                      KCal/Mol        Cal/Mol-Kelvin    Cal/Mol-Kelvin
 Total                   15.192              6.002             45.097
 Electronic               0.000              0.000              0.000
 Translational            0.889              2.981             34.608
 Rotational               0.889              2.981             10.483
 Vibrational             13.414              0.041              0.006

 Optimization completed.
    -- Stationary point found.
 Normal termination of Gaussian 09 at Thu Mar  9 16:41:53 2017.

 -----------------------------------------------------------------
 #N Geom=AllCheck Guess=TCheck SCRF=Check CCSD(T,E4T,FrzG4)/GTBas1
 -----------------------------------------------------------------

 Structure from the checkpoint file:  "/home/iawad/Gau-24650.chk"
 -------
 OH2.LOG
 -------
 Charge =  0 Multiplicity = 1

 SCF Done:  E(RHF) =  -76.0102437998     A.U. after    9 cycles
 E2 =    -0.1865165700D+00 EUMP2 =    -0.76196760369846D+02
 CCSD(T)= -0.76207701541D+02
 37\MP4SDTQ=-76.2072026\MP4SDQ=-76.2054026\CCSD=-76.205812\CCSD(T)=-76.
 Normal termination of Gaussian 09 at Thu Mar  9 16:41:55 2017.

 ---------------------------------------------------------
 #N Geom=AllCheck Guess=TCheck SCRF=Check MP4=FrzG4/GTBas2
 ---------------------------------------------------------

 Structure from the checkpoint file:  "/home/iawad/Gau-24650.chk"
 -------
 OH2.LOG
 -------
 Charge =  0 Multiplicity = 1

 SCF Done:  E(RHF) =  -76.0171466777     A.U. after   10 cycles
 E2 =    -0.1923750858D+00 EUMP2 =    -0.76209521763544D+02
 Normal termination of Gaussian 09 at Thu Mar  9 16:41:56 2017.

 ---------------------------------------------------------
 #N Geom=AllCheck Guess=TCheck SCRF=Check MP4=FrzG4/GTBas3
 ---------------------------------------------------------

 Structure from the checkpoint file:  "/home/iawad/Gau-24650.chk"
 -------
 OH2.LOG
 -------
 Charge =  0 Multiplicity = 1

 SCF Done:  E(RHF) =  -76.0283430269     A.U. after   10 cycles
 E2 =    -0.2389557183D+00 EUMP2 =    -0.76267298745223D+02
 Normal termination of Gaussian 09 at Thu Mar  9 16:41:58 2017.

 -----------------------------------------------------------
 #N Geom=AllCheck Guess=TCheck SCRF=Check MP2=Full/GTLargeXP
 -----------------------------------------------------------

 Structure from the checkpoint file:  "/home/iawad/Gau-24650.chk"
 -------
 OH2.LOG
 -------
 Charge =  0 Multiplicity = 1

 SCF Done:  E(RHF) =  -76.0573729444     A.U. after   10 cycles
 E2 =    -0.3080875481D+00 EUMP2 =    -0.76365460492503D+02
 Normal termination of Gaussian 09 at Thu Mar  9 16:42:01 2017.
 SCF Done:  E(RHF) =  -76.0648941312     A.U. after    8 cycles
 Normal termination of Gaussian 09 at Thu Mar  9 16:42:04 2017.

                         Standard orientation:
 ---------------------------------------------------------------------
 Center     Atomic      Atomic             Coordinates (Angstroms)
 Number     Number       Type             X           Y           Z
 ---------------------------------------------------------------------
      1          8           0        0.000000    0.000000    0.118849
      2          1           0        0.000000    0.756669   -0.475397
      3          1           0        0.000000   -0.756669   -0.475397
 ---------------------------------------------------------------------

 SCF Done:  E(RHF) =  -76.0666738586     A.U. after    8 cycles

 The electronic state is 1-A1.
 Alpha  occ. eigenvalues --  -20.56505  -1.35062  -0.71345  -0.58546  -0.51030
 Alpha virt. eigenvalues --    0.08733   0.09562   0.10332   0.11365   0.19613
 Alpha virt. eigenvalues --    0.24550   0.40595   0.43181   0.48192   0.51188
 Alpha virt. eigenvalues --    0.51316   0.58662   0.65110   0.71093   0.82364

 Mulliken charges:
               1
     1  O   -0.695023
     2  H    0.347511
     3  H    0.347511
 Sum of Mulliken charges =   0.00000

 Dipole moment (field-independent basis, Debye):
    X=              0.0000    Y=              0.0000    Z=             -2.0281  Tot=              2.0281
 Quadrupole moment (field-independent basis, Debye-Ang):
   XX=             -7.5505   YY=             -4.2656   ZZ=             -6.2173
   XY=              0.0000   XZ=              0.0000   YZ=              0.0000

 Normal termination of Gaussian 09 at Thu Mar  9 16:42:16 2017.
