 Gaussian 09, Revision E.01,
 Gaussian 09:  ES64L-G09RevE.01 30-Nov-2015

 -------------------------------------
 # b3lyp/6-31g(d) irc=(calcfc,forward)
 -------------------------------------

 ---------------------------------
 glo_1w_alpha_ts_boat1_B3LYP_631Gd
 ---------------------------------
 Symbolic Z-matrix:
 Charge =  0 Multiplicity = 1

 SCF Done:  E(RB3LYP) =  -839.957879400     A.U. after   14 cycles
 SCF Done:  E(RB3LYP) =  -839.958209808     A.U. after   11 cycles
 SCF Done:  E(RB3LYP) =  -839.959206376     A.U. after   11 cycles
 SCF Done:  E(RB3LYP) =  -839.960821874     A.U. after   12 cycles
 SCF Done:  E(RB3LYP) =  -839.962863051     A.U. after   12 cycles
 SCF Done:  E(RB3LYP) =  -839.965035181     A.U. after   12 cycles
 SCF Done:  E(RB3LYP) =  -839.967026457     A.U. after   12 cycles
 SCF Done:  E(RB3LYP) =  -839.968776456     A.U. after   11 cycles
 SCF Done:  E(RB3LYP) =  -839.970390720     A.U. after   11 cycles
 SCF Done:  E(RB3LYP) =  -839.971935752     A.U. after   11 cycles
 SCF Done:  E(RB3LYP) =  -839.973435819     A.U. after   11 cycles

                          Input orientation:
 ---------------------------------------------------------------------
 Center     Atomic      Atomic             Coordinates (Angstroms)
 Number     Number       Type             X           Y           Z
 ---------------------------------------------------------------------
      1          1           0       -0.266735    1.303813    1.167696
      2          6           0       -0.068616    1.225579    0.087127
      3          6           0        0.687834   -1.225140    0.320413
      4          6           0       -1.508118   -0.881674   -0.880747
      5          6           0       -0.825610   -1.517008    0.317004
      6          8           0       -1.223210    0.804646   -0.632574
      7          6           0        1.051831    0.205833   -0.142545
      8          1           0       -0.939776   -2.606377    0.222935
      9          1           0        1.235028    0.157718   -1.227721
     10          6           0        0.285792    2.621450   -0.459376
     11          1           0       -0.566380    3.295950   -0.305531
     12          1           0        0.467496    2.535262   -1.539236
     13          1           0        1.032379   -1.307909    1.366563
     14          8           0        1.452587    3.121737    0.221848
     15          1           0        1.748033    3.926643   -0.229397
     16          8           0       -1.467910   -1.045077    1.505635
     17          1           0       -1.161270   -1.595143    2.242374
     18          8           0        1.277210   -2.210918   -0.500247
     19          1           0        2.254937   -2.072220   -0.492211
     20          8           0        2.252366    0.581564    0.546595
     21          1           0        2.349344    1.551759    0.444581
     22          1           0       -0.969515   -1.085671   -1.807962
     23          8           0       -2.819764   -1.028341   -1.025065
     24          8           0       -3.377057    0.727946    0.559618
     25          1           0       -3.282137   -0.465435   -0.301607
     26          1           0       -2.531919    1.055064    0.142794
     27          1           0       -3.066229    0.335604    1.392853
     28          8           0        3.927749   -1.438006   -0.217273
     29          1           0        3.553639   -0.577093    0.082547
     30          1           0        4.279441   -1.844300    0.589288
 ---------------------------------------------------------------------

 Alpha  occ. eigenvalues --  -19.18534 -19.17545 -19.16021 -19.14934 -19.14736
 Alpha  occ. eigenvalues --  -19.14051 -19.13035 -19.12895 -10.29728 -10.25243
 Alpha  occ. eigenvalues --  -10.25054 -10.24660 -10.24382 -10.24142  -1.06469
 Alpha  occ. eigenvalues --   -1.05457  -1.03791  -1.03234  -1.00828  -0.99986
 Alpha  occ. eigenvalues --   -0.99608  -0.98391  -0.77770  -0.76333  -0.70327
 Alpha  occ. eigenvalues --   -0.64542  -0.62069  -0.58609  -0.55514  -0.55311
 Alpha  occ. eigenvalues --   -0.52885  -0.52735  -0.51395  -0.50763  -0.49829
 Alpha  occ. eigenvalues --   -0.47496  -0.46023  -0.45591  -0.44849  -0.42245
 Alpha  occ. eigenvalues --   -0.41693  -0.41214  -0.40664  -0.39350  -0.37853
 Alpha  occ. eigenvalues --   -0.36937  -0.36131  -0.35325  -0.34358  -0.32262
 Alpha  occ. eigenvalues --   -0.30521  -0.30319  -0.29228  -0.29018  -0.28238
 Alpha  occ. eigenvalues --   -0.27396  -0.25958  -0.25494
 Alpha virt. eigenvalues --    0.01646   0.04664   0.06162   0.07034   0.10043
 Alpha virt. eigenvalues --    0.10539   0.10810   0.12717   0.14589   0.14709
 Alpha virt. eigenvalues --    0.15242   0.16180   0.17037   0.18201   0.19290

 Mulliken charges:
               1
     1  H    0.134151
     2  C    0.135547
     3  C    0.117528
     4  C    0.308155
     5  C    0.081474
     6  O   -0.620108
     7  C    0.102152
     8  H    0.167655
     9  H    0.136624
    10  C   -0.062382
    11  H    0.155693
    12  H    0.145461
    13  H    0.110233
    14  O   -0.639408
    15  H    0.413787
    16  O   -0.649992
    17  H    0.406631
    18  O   -0.678267
    19  H    0.429474
    20  O   -0.694246
    21  H    0.434968
    22  H    0.177838
    23  O   -0.602873
    24  O   -0.826834
    25  H    0.448770
    26  H    0.443891
    27  H    0.408948
    28  O   -0.808585
    29  H    0.429983
    30  H    0.393733
 Sum of Mulliken charges =  -0.00000

 Dipole moment (field-independent basis, Debye):
    X=              3.3571    Y=              2.2733    Z=              2.9257  Tot=              4.9998
 Quadrupole moment (field-independent basis, Debye-Ang):
   XX=            -96.3946   YY=            -72.4571   ZZ=            -79.8758
   XY=              7.7013   XZ=             -0.7052   YZ=            -12.3627

  Exact polarizability:   0.000   0.000   0.000   0.000   0.000   0.000
 Approx polarizability: 138.365   4.045 140.557   3.414   4.993 123.738

 Normal termination of Gaussian 09 at Sat Jan 14 01:02:16 2017.
