 Gaussian 09, Revision E.01,
 Gaussian 09:  ES64L-G09RevE.01 30-Nov-2015

 -------------------------------------
 # b3lyp/6-31g(d) irc=(calcfc,reverse)
 -------------------------------------

 ---------------------------------
 glo_2w_alpha_ts_boat1_B3LYP_631Gd
 ---------------------------------
 Symbolic Z-matrix:
 Charge =  0 Multiplicity = 1

 SCF Done:  E(RB3LYP) =  -839.955053859     A.U. after   14 cycles
 SCF Done:  E(RB3LYP) =  -839.955355212     A.U. after   11 cycles
 SCF Done:  E(RB3LYP) =  -839.956283281     A.U. after   11 cycles
 SCF Done:  E(RB3LYP) =  -839.957791454     A.U. after   12 cycles
 SCF Done:  E(RB3LYP) =  -839.959700141     A.U. after   12 cycles
 SCF Done:  E(RB3LYP) =  -839.961716266     A.U. after   12 cycles
 SCF Done:  E(RB3LYP) =  -839.963495317     A.U. after   12 cycles
 SCF Done:  E(RB3LYP) =  -839.964908301     A.U. after   11 cycles
 SCF Done:  E(RB3LYP) =  -839.966134353     A.U. after   11 cycles
 SCF Done:  E(RB3LYP) =  -839.967272393     A.U. after   11 cycles
 SCF Done:  E(RB3LYP) =  -839.968346461     A.U. after   11 cycles
 SCF Done:  E(RB3LYP) =  -839.968358007     A.U. after   10 cycles

                          Input orientation:
 ---------------------------------------------------------------------
 Center     Atomic      Atomic             Coordinates (Angstroms)
 Number     Number       Type             X           Y           Z
 ---------------------------------------------------------------------
      1          1           0        1.430497   -0.966023   -1.300232
      2          6           0        1.297558   -0.842880   -0.216618
      3          6           0        0.230083    1.408751   -0.305254
      4          6           0       -1.022964   -0.163078    1.371583
      5          6           0       -0.885586    1.226733    0.728771
      6          8           0        0.000630   -1.276765    0.149026
      7          6           0        1.504714    0.659779    0.068467
      8          1           0       -0.625549    1.884752    1.579966
      9          1           0        1.737088    0.827564    1.134168
     10          6           0        2.316454   -1.713522    0.513222
     11          1           0        2.169111   -2.767133    0.238956
     12          1           0        2.166573   -1.618686    1.599160
     13          1           0       -0.137029    1.010033   -1.264756
     14          8           0        3.617442   -1.252172    0.128129
     15          1           0        4.281944   -1.697400    0.673860
     16          8           0       -2.134999    1.588605    0.181184
     17          1           0       -1.999176    2.436938   -0.271542
     18          8           0        0.454682    2.809117   -0.414144
     19          1           0        1.302485    2.903092   -0.883066
     20          8           0        2.550149    1.185020   -0.740929
     21          1           0        3.329939    0.626947   -0.566626
     22          1           0       -0.248008   -0.359761    2.130848
     23          8           0       -2.111257   -0.740071    1.466732
     24          8           0       -1.504043   -1.506707   -1.772380
     25          1           0       -1.550983   -2.426690   -2.071492
     26          1           0       -2.422551   -1.275294   -1.366769
     27          1           0       -0.607401   -1.405260   -0.680818
     28          8           0       -3.559292   -0.913904   -0.552183
     29          1           0       -4.055831   -1.705685   -0.295239
     30          1           0       -3.091416   -0.626559    0.293780
 ---------------------------------------------------------------------

 Alpha  occ. eigenvalues --  -19.17719 -19.15170 -19.14858 -19.14339 -19.14109
 Alpha  occ. eigenvalues --  -19.13958 -19.13250 -19.11705 -10.27566 -10.24876
 Alpha  occ. eigenvalues --  -10.24490 -10.23949 -10.23543 -10.23371  -1.05338
 Alpha  occ. eigenvalues --   -1.04299  -1.03277  -1.02492  -1.00925  -1.00877
 Alpha  occ. eigenvalues --   -0.99884  -0.97863  -0.78204  -0.75325  -0.69128
 Alpha  occ. eigenvalues --   -0.63177  -0.60638  -0.57031  -0.55732  -0.54724
 Alpha  occ. eigenvalues --   -0.53789  -0.52310  -0.50869  -0.50357  -0.48662
 Alpha  occ. eigenvalues --   -0.46672  -0.45143  -0.44379  -0.43571  -0.42698
 Alpha  occ. eigenvalues --   -0.42138  -0.41354  -0.40195  -0.38437  -0.37213
 Alpha  occ. eigenvalues --   -0.35884  -0.35370  -0.34708  -0.33128  -0.32200
 Alpha  occ. eigenvalues --   -0.30388  -0.29760  -0.28996  -0.28385  -0.26711
 Alpha  occ. eigenvalues --   -0.26520  -0.25600  -0.24020
 Alpha virt. eigenvalues --    0.02382   0.04292   0.06402   0.07729   0.08985
 Alpha virt. eigenvalues --    0.10508   0.11388   0.12111   0.13696   0.14358
 Alpha virt. eigenvalues --    0.15699   0.16122   0.16717   0.17802   0.19880

 Mulliken charges:
               1
     1  H    0.152412
     2  C    0.102549
     3  C    0.102257
     4  C    0.317503
     5  C    0.101041
     6  O   -0.658506
     7  C    0.100878
     8  H    0.138005
     9  H    0.113942
    10  C   -0.047119
    11  H    0.141594
    12  H    0.137790
    13  H    0.144556
    14  O   -0.638877
    15  H    0.408974
    16  O   -0.629686
    17  H    0.411339
    18  O   -0.664580
    19  H    0.418730
    20  O   -0.675189
    21  H    0.425549
    22  H    0.113335
    23  O   -0.533548
    24  O   -0.830043
    25  H    0.392376
    26  H    0.451148
    27  H    0.466067
    28  O   -0.819532
    29  H    0.388047
    30  H    0.468989
 Sum of Mulliken charges =  -0.00000

 Dipole moment (field-independent basis, Debye):
    X=              3.7240    Y=             -3.7641    Z=              0.4351  Tot=              5.3128
 Quadrupole moment (field-independent basis, Debye-Ang):
   XX=            -76.2805   YY=            -74.3174   ZZ=            -84.0446
   XY=             -0.1847   XZ=              8.1850   YZ=              2.5898

  Exact polarizability:   0.000   0.000   0.000   0.000   0.000   0.000
 Approx polarizability: 151.883   6.067 127.654  -4.422  -1.703 122.620

 Normal termination of Gaussian 09 at Sat Jan 14 01:00:00 2017.
