 Gaussian 09, Revision E.01,
 Gaussian 09:  ES64L-G09RevE.01 30-Nov-2015

 -------------------------------------
 # b3lyp/6-31g(d) irc=(calcfc,reverse)
 -------------------------------------

 ---------------------------------
 glo_1w_alpha_ts_boat1_B3LYP_631Gd
 ---------------------------------
 Symbolic Z-matrix:
 Charge =  0 Multiplicity = 1

 SCF Done:  E(RB3LYP) =  -839.957879400     A.U. after   14 cycles
 SCF Done:  E(RB3LYP) =  -839.958201581     A.U. after   11 cycles
 SCF Done:  E(RB3LYP) =  -839.959139690     A.U. after   11 cycles
 SCF Done:  E(RB3LYP) =  -839.960577365     A.U. after   12 cycles
 SCF Done:  E(RB3LYP) =  -839.962252321     A.U. after   12 cycles
 SCF Done:  E(RB3LYP) =  -839.963860446     A.U. after   12 cycles
 SCF Done:  E(RB3LYP) =  -839.965263109     A.U. after   12 cycles
 SCF Done:  E(RB3LYP) =  -839.966530154     A.U. after   11 cycles
 SCF Done:  E(RB3LYP) =  -839.967710233     A.U. after   11 cycles
 SCF Done:  E(RB3LYP) =  -839.968819679     A.U. after   11 cycles
 SCF Done:  E(RB3LYP) =  -839.968839046     A.U. after   10 cycles
 SCF Done:  E(RB3LYP) =  -839.969914503     A.U. after   11 cycles

                          Input orientation:
 ---------------------------------------------------------------------
 Center     Atomic      Atomic             Coordinates (Angstroms)
 Number     Number       Type             X           Y           Z
 ---------------------------------------------------------------------
      1          1           0       -0.255897    1.317897    1.180263
      2          6           0       -0.061200    1.251977    0.102038
      3          6           0        0.683403   -1.224209    0.318160
      4          6           0       -1.563416   -1.010060   -0.922398
      5          6           0       -0.828239   -1.524088    0.317949
      6          8           0       -1.224058    0.869783   -0.608952
      7          6           0        1.044762    0.206651   -0.144483
      8          1           0       -0.918784   -2.619078    0.253300
      9          1           0        1.228951    0.160541   -1.229073
     10          6           0        0.292690    2.630138   -0.454584
     11          1           0       -0.560914    3.303966   -0.303305
     12          1           0        0.467872    2.535142   -1.535412
     13          1           0        1.029578   -1.304452    1.364290
     14          8           0        1.456383    3.125405    0.221180
     15          1           0        1.756648    3.931072   -0.225566
     16          8           0       -1.467898   -1.043181    1.505018
     17          1           0       -1.164087   -1.593892    2.242361
     18          8           0        1.277348   -2.209728   -0.500150
     19          1           0        2.254950   -2.072257   -0.489434
     20          8           0        2.247753    0.582989    0.545291
     21          1           0        2.351509    1.552095    0.439028
     22          1           0       -0.927452   -1.031603   -1.822391
     23          8           0       -2.795485   -1.057563   -1.039328
     24          8           0       -3.378242    0.731555    0.564546
     25          1           0       -3.476239   -0.076692   -0.012547
     26          1           0       -2.092024    1.029272   -0.069561
     27          1           0       -3.078219    0.329019    1.398399
     28          8           0        3.928157   -1.438161   -0.217244
     29          1           0        3.554641   -0.577992    0.083657
     30          1           0        4.280399   -1.845774    0.588417
 ---------------------------------------------------------------------

 Alpha  occ. eigenvalues --  -19.18681 -19.17400 -19.16311 -19.16221 -19.14818
 Alpha  occ. eigenvalues --  -19.13995 -19.12837 -19.11046 -10.27462 -10.25373
 Alpha  occ. eigenvalues --  -10.25316 -10.24774 -10.24561 -10.24126  -1.06459
 Alpha  occ. eigenvalues --   -1.05468  -1.03726  -1.03436  -1.00943  -1.00823
 Alpha  occ. eigenvalues --   -0.99987  -0.99524  -0.78346  -0.76068  -0.70065
 Alpha  occ. eigenvalues --   -0.63962  -0.61356  -0.57560  -0.56519  -0.55056
 Alpha  occ. eigenvalues --   -0.53127  -0.52904  -0.51661  -0.50535  -0.49613
 Alpha  occ. eigenvalues --   -0.47389  -0.46711  -0.45801  -0.43617  -0.43225
 Alpha  occ. eigenvalues --   -0.41364  -0.40884  -0.40712  -0.39288  -0.38126
 Alpha  occ. eigenvalues --   -0.37676  -0.36544  -0.35148  -0.34226  -0.33447
 Alpha  occ. eigenvalues --   -0.30641  -0.30401  -0.29545  -0.29388  -0.28375
 Alpha  occ. eigenvalues --   -0.27163  -0.25905  -0.23320
 Alpha virt. eigenvalues --    0.01178   0.04021   0.05704   0.06953   0.09764
 Alpha virt. eigenvalues --    0.10369   0.10569   0.12520   0.14429   0.14505
 Alpha virt. eigenvalues --    0.15526   0.16066   0.16595   0.18153   0.19295

 Mulliken charges:
               1
     1  H    0.149653
     2  C    0.100773
     3  C    0.120234
     4  C    0.309268
     5  C    0.061933
     6  O   -0.651987
     7  C    0.107598
     8  H    0.170201
     9  H    0.140810
    10  C   -0.056353
    11  H    0.154588
    12  H    0.146885
    13  H    0.108402
    14  O   -0.638296
    15  H    0.412962
    16  O   -0.650487
    17  H    0.406419
    18  O   -0.676711
    19  H    0.428989
    20  O   -0.692344
    21  H    0.434980
    22  H    0.140827
    23  O   -0.542338
    24  O   -0.816150
    25  H    0.443191
    26  H    0.459466
    27  H    0.411707
    28  O   -0.807761
    29  H    0.429532
    30  H    0.394009
 Sum of Mulliken charges =  -0.00000

 Dipole moment (field-independent basis, Debye):
    X=              3.5498    Y=              2.8056    Z=              3.2686  Tot=              5.5818
 Quadrupole moment (field-independent basis, Debye-Ang):
   XX=            -95.9910   YY=            -72.5521   ZZ=            -80.1486
   XY=              6.6347   XZ=             -1.4914   YZ=            -12.7495

  Exact polarizability:   0.000   0.000   0.000   0.000   0.000   0.000
 Approx polarizability: 146.404   3.205 134.177   3.500   3.758 123.889

 Normal termination of Gaussian 09 at Sat Jan 14 01:04:35 2017.
