 Gaussian 09, Revision E.01,
 Gaussian 09:  ES64L-G09RevE.01 30-Nov-2015

 -------------------------------------
 # b3lyp/6-31g(d) irc=(calcfc,reverse)
 -------------------------------------

 --------------------------------
 glo_1w_beta_ts_boat1_B3LYP_631Gd
 --------------------------------
 Symbolic Z-matrix:
 Charge =  0 Multiplicity = 1

 SCF Done:  E(RB3LYP) =  -839.953068735     A.U. after   14 cycles
 SCF Done:  E(RB3LYP) =  -839.953514715     A.U. after   11 cycles
 SCF Done:  E(RB3LYP) =  -839.954731001     A.U. after   11 cycles
 SCF Done:  E(RB3LYP) =  -839.956419952     A.U. after   12 cycles
 SCF Done:  E(RB3LYP) =  -839.958196115     A.U. after   12 cycles
 SCF Done:  E(RB3LYP) =  -839.959789168     A.U. after   12 cycles
 SCF Done:  E(RB3LYP) =  -839.961200699     A.U. after   11 cycles
 SCF Done:  E(RB3LYP) =  -839.962499279     A.U. after   11 cycles
 SCF Done:  E(RB3LYP) =  -839.963729375     A.U. after   11 cycles
 SCF Done:  E(RB3LYP) =  -839.964905322     A.U. after   11 cycles
 SCF Done:  E(RB3LYP) =  -839.966020994     A.U. after   11 cycles

                          Input orientation:
 ---------------------------------------------------------------------
 Center     Atomic      Atomic             Coordinates (Angstroms)
 Number     Number       Type             X           Y           Z
 ---------------------------------------------------------------------
      1          1           0       -0.016246    1.629846    1.419235
      2          6           0       -0.489021    1.138924    0.557119
      3          6           0        1.122457   -0.755674    0.059458
      4          6           0       -1.359009   -1.581086    0.001504
      5          6           0        0.088847   -1.786125   -0.414915
      6          8           0       -1.261544    0.061538    1.053829
      7          6           0        0.676118    0.653583   -0.342547
      8          1           0       -1.625733   -2.070572    0.950773
      9          1           0        0.088689   -1.750524   -1.515339
     10          1           0        0.362808    0.626203   -1.396937
     11          6           0       -1.347647    2.172083   -0.171889
     12          1           0       -2.144424    2.543511    0.490284
     13          1           0       -1.810203    1.706345   -1.053971
     14          8           0       -2.213409   -1.333260   -0.870965
     15          1           0        1.207567   -0.813605    1.156053
     16          8           0       -0.465061    3.234056   -0.545789
     17          1           0       -0.919690    3.817831   -1.170482
     18          8           0        0.450449   -3.072540    0.052635
     19          1           0        1.403040   -3.138580   -0.141182
     20          8           0        2.321020   -1.177235   -0.564032
     21          1           0        3.082149   -0.721534   -0.133218
     22          8           0        1.756243    1.582310   -0.206244
     23          1           0        1.389386    2.449946   -0.458047
     24          8           0       -3.674474   -0.065372    0.615080
     25          1           0       -3.362455   -0.698336   -0.108658
     26          1           0       -2.267876    0.229063    1.016206
     27          8           0        4.144524    0.505464    0.625792
     28          1           0        3.449091    1.141266    0.352158
     29          1           0        4.084128    0.481183    1.592765
     30          1           0       -4.129941    0.660345    0.163823
 ---------------------------------------------------------------------

 Alpha  occ. eigenvalues --  -19.18989 -19.16793 -19.16490 -19.15650 -19.14967
 Alpha  occ. eigenvalues --  -19.13631 -19.13213 -19.12700 -10.27937 -10.26387
 Alpha  occ. eigenvalues --  -10.25644 -10.24771 -10.23799 -10.23070  -1.06736
 Alpha  occ. eigenvalues --   -1.05640  -1.03979  -1.02683  -1.01839  -1.00903
 Alpha  occ. eigenvalues --   -1.00544  -0.99302  -0.78970  -0.75799  -0.69636
 Alpha  occ. eigenvalues --   -0.64311  -0.61837  -0.57424  -0.56851  -0.54722
 Alpha  occ. eigenvalues --   -0.54457  -0.53156  -0.51870  -0.50738  -0.49362
 Alpha  occ. eigenvalues --   -0.47924  -0.46580  -0.44882  -0.43370  -0.43158
 Alpha  occ. eigenvalues --   -0.42336  -0.41574  -0.40066  -0.39524  -0.38943
 Alpha  occ. eigenvalues --   -0.37850  -0.35821  -0.34926  -0.34342  -0.33591
 Alpha  occ. eigenvalues --   -0.31190  -0.30729  -0.30064  -0.29098  -0.27269
 Alpha  occ. eigenvalues --   -0.26817  -0.25870  -0.24842
 Alpha virt. eigenvalues --    0.00480   0.03177   0.05298   0.06545   0.09558
 Alpha virt. eigenvalues --    0.10902   0.11697   0.12184   0.12700   0.14739
 Alpha virt. eigenvalues --    0.15339   0.15395   0.16539   0.18415   0.19184

 Mulliken charges:
               1
     1  H    0.148913
     2  C    0.151067
     3  C    0.085247
     4  C    0.302476
     5  C    0.116868
     6  O   -0.665872
     7  C    0.111073
     8  H    0.149206
     9  H    0.145847
    10  H    0.134517
    11  C   -0.096502
    12  H    0.138946
    13  H    0.152200
    14  O   -0.546685
    15  H    0.124252
    16  O   -0.635676
    17  H    0.412980
    18  O   -0.654759
    19  H    0.410486
    20  O   -0.681159
    21  H    0.434813
    22  O   -0.681193
    23  H    0.429521
    24  O   -0.821581
    25  H    0.445819
    26  H    0.467138
    27  O   -0.801467
    28  H    0.433584
    29  H    0.394132
    30  H    0.395809
 Sum of Mulliken charges =  -0.00000

 Dipole moment (field-independent basis, Debye):
    X=             -1.9685    Y=              5.9621    Z=              0.3473  Tot=              6.2883
 Quadrupole moment (field-independent basis, Debye-Ang):
   XX=            -88.1752   YY=            -78.5711   ZZ=            -82.2160
   XY=            -10.8951   XZ=             10.0475   YZ=             -5.5380

  Exact polarizability:   0.000   0.000   0.000   0.000   0.000   0.000
 Approx polarizability: 143.393  -0.722 132.849   8.906   0.680 125.627

 Normal termination of Gaussian 09 at Sat Jan 14 00:55:15 2017.
