 Gaussian 09, Revision E.01,
 Gaussian 09:  ES64L-G09RevE.01 30-Nov-2015

 -------------------------------------
 # b3lyp/6-31g(d) irc=(calcfc,forward)
 -------------------------------------

 ---------------------------------
 glo_2w_alpha_ts_boat1_B3LYP_631Gd
 ---------------------------------
 Symbolic Z-matrix:
 Charge =  0 Multiplicity = 1

 SCF Done:  E(RB3LYP) =  -839.955053859     A.U. after   14 cycles
 SCF Done:  E(RB3LYP) =  -839.955329106     A.U. after   11 cycles
 SCF Done:  E(RB3LYP) =  -839.956106681     A.U. after   11 cycles
 SCF Done:  E(RB3LYP) =  -839.957349656     A.U. after   11 cycles
 SCF Done:  E(RB3LYP) =  -839.958989550     A.U. after   12 cycles
 SCF Done:  E(RB3LYP) =  -839.960881177     A.U. after   12 cycles
 SCF Done:  E(RB3LYP) =  -839.962782088     A.U. after   12 cycles
 SCF Done:  E(RB3LYP) =  -839.964455146     A.U. after   12 cycles
 SCF Done:  E(RB3LYP) =  -839.965908728     A.U. after   11 cycles
 SCF Done:  E(RB3LYP) =  -839.967255685     A.U. after   11 cycles
 SCF Done:  E(RB3LYP) =  -839.968553248     A.U. after   11 cycles

                          Input orientation:
 ---------------------------------------------------------------------
 Center     Atomic      Atomic             Coordinates (Angstroms)
 Number     Number       Type             X           Y           Z
 ---------------------------------------------------------------------
      1          1           0        1.382381   -0.973666   -1.282628
      2          6           0        1.280227   -0.836963   -0.194349
      3          6           0        0.232104    1.410778   -0.307367
      4          6           0       -0.956867   -0.202189    1.296027
      5          6           0       -0.878505    1.224689    0.726433
      6          8           0       -0.026061   -1.239816    0.198016
      7          6           0        1.506863    0.660998    0.068413
      8          1           0       -0.629637    1.874476    1.584427
      9          1           0        1.737479    0.833405    1.135007
     10          6           0        2.315866   -1.711463    0.515315
     11          1           0        2.168075   -2.764678    0.239133
     12          1           0        2.173228   -1.620784    1.602529
     13          1           0       -0.135260    1.008105   -1.264971
     14          8           0        3.618739   -1.252017    0.127182
     15          1           0        4.283057   -1.701408    0.669671
     16          8           0       -2.133963    1.585577    0.183595
     17          1           0       -1.996572    2.431567   -0.273447
     18          8           0        0.454332    2.809854   -0.414421
     19          1           0        1.303669    2.904185   -0.880460
     20          8           0        2.550887    1.186123   -0.740736
     21          1           0        3.327656    0.621750   -0.572441
     22          1           0       -0.326973   -0.344751    2.174346
     23          8           0       -2.133083   -0.750349    1.444653
     24          8           0       -1.492430   -1.513914   -1.780191
     25          1           0       -1.466297   -2.432970   -2.083996
     26          1           0       -2.801891   -1.165264   -1.178977
     27          1           0       -0.867449   -1.464367   -0.979910
     28          8           0       -3.549026   -0.910531   -0.543963
     29          1           0       -4.032449   -1.729599   -0.356822
     30          1           0       -2.773383   -0.624777    0.630842
 ---------------------------------------------------------------------

 Alpha  occ. eigenvalues --  -19.17370 -19.14881 -19.14655 -19.14354 -19.14089
 Alpha  occ. eigenvalues --  -19.13922 -19.13510 -19.13195 -10.29763 -10.24412
 Alpha  occ. eigenvalues --  -10.24175 -10.23776 -10.23753 -10.23231  -1.05930
 Alpha  occ. eigenvalues --   -1.04448  -1.03346  -1.01883  -1.00958  -1.00069
 Alpha  occ. eigenvalues --   -0.99224  -0.96984  -0.77648  -0.75335  -0.69662
 Alpha  occ. eigenvalues --   -0.64232  -0.60996  -0.58213  -0.55179  -0.54424
 Alpha  occ. eigenvalues --   -0.52799  -0.52687  -0.51123  -0.50927  -0.47839
 Alpha  occ. eigenvalues --   -0.46509  -0.46228  -0.44635  -0.44012  -0.42339
 Alpha  occ. eigenvalues --   -0.41604  -0.41056  -0.39374  -0.38544  -0.36878
 Alpha  occ. eigenvalues --   -0.35890  -0.35103  -0.34241  -0.33531  -0.31771
 Alpha  occ. eigenvalues --   -0.29680  -0.29549  -0.29050  -0.28404  -0.27141
 Alpha  occ. eigenvalues --   -0.26432  -0.25984  -0.25185
 Alpha virt. eigenvalues --    0.02619   0.04964   0.06604   0.07952   0.08489
 Alpha virt. eigenvalues --    0.10565   0.11354   0.12486   0.13921   0.14493
 Alpha virt. eigenvalues --    0.15903   0.16234   0.16735   0.17559   0.20021

 Mulliken charges:
               1
     1  H    0.141668
     2  C    0.133830
     3  C    0.106760
     4  C    0.303225
     5  C    0.114951
     6  O   -0.629589
     7  C    0.096587
     8  H    0.140124
     9  H    0.108542
    10  C   -0.050275
    11  H    0.139270
    12  H    0.130907
    13  H    0.147215
    14  O   -0.639723
    15  H    0.407969
    16  O   -0.633500
    17  H    0.414490
    18  O   -0.665995
    19  H    0.419284
    20  O   -0.676284
    21  H    0.425783
    22  H    0.151829
    23  O   -0.595703
    24  O   -0.838663
    25  H    0.387374
    26  H    0.445327
    27  H    0.458369
    28  O   -0.816573
    29  H    0.386699
    30  H    0.486102
 Sum of Mulliken charges =  -0.00000

 Dipole moment (field-independent basis, Debye):
    X=              3.3637    Y=             -3.6069    Z=              0.9206  Tot=              5.0171
 Quadrupole moment (field-independent basis, Debye-Ang):
   XX=            -76.9207   YY=            -74.6833   ZZ=            -83.3670
   XY=             -0.0022   XZ=              7.5797   YZ=              2.2301

  Exact polarizability:   0.000   0.000   0.000   0.000   0.000   0.000
 Approx polarizability: 149.660   0.552 127.654  -7.093   1.432 125.210

 Normal termination of Gaussian 09 at Sat Jan 14 00:59:15 2017.
