 Gaussian 09, Revision E.01,
 Gaussian 09:  ES64L-G09RevE.01 30-Nov-2015

 -------------------------------------
 # b3lyp/6-31g(d) irc=(calcfc,reverse)
 -------------------------------------

 --------------------------------
 glo_2w_beta_ts_boat1_B3LYP_631Gd
 --------------------------------
 Symbolic Z-matrix:
 Charge =  0 Multiplicity = 1

 SCF Done:  E(RB3LYP) =  -839.962047726     A.U. after   14 cycles
 SCF Done:  E(RB3LYP) =  -839.962388960     A.U. after   11 cycles
 SCF Done:  E(RB3LYP) =  -839.963237108     A.U. after   11 cycles
 SCF Done:  E(RB3LYP) =  -839.964290670     A.U. after   11 cycles
 SCF Done:  E(RB3LYP) =  -839.965308084     A.U. after   11 cycles
 SCF Done:  E(RB3LYP) =  -839.966254836     A.U. after   11 cycles
 SCF Done:  E(RB3LYP) =  -839.967156414     A.U. after   11 cycles
 SCF Done:  E(RB3LYP) =  -839.968032730     A.U. after   11 cycles
 SCF Done:  E(RB3LYP) =  -839.968882387     A.U. after   11 cycles
 SCF Done:  E(RB3LYP) =  -839.969674215     A.U. after   11 cycles
 SCF Done:  E(RB3LYP) =  -839.969721440     A.U. after   10 cycles
 SCF Done:  E(RB3LYP) =  -839.970537066     A.U. after   11 cycles

                          Input orientation:
 ---------------------------------------------------------------------
 Center     Atomic      Atomic             Coordinates (Angstroms)
 Number     Number       Type             X           Y           Z
 ---------------------------------------------------------------------
      1          1           0        0.413302    1.630799    1.534670
      2          6           0        0.063378    1.154510    0.609456
      3          6           0        1.854709   -0.560480    0.259473
      4          6           0       -0.549671   -1.416215   -0.214448
      5          6           0        0.957009   -1.693382   -0.241660
      6          8           0       -0.625713   -0.041547    0.984496
      7          6           0        1.322893    0.792732   -0.200071
      8          1           0       -1.089742   -2.067175    0.493350
      9          1           0        1.194674   -1.839061   -1.305312
     10          1           0        1.083151    0.738257   -1.272170
     11          6           0       -0.833244    2.135026   -0.144644
     12          1           0       -1.706856    2.406524    0.463198
     13          1           0       -1.182007    1.666547   -1.074561
     14          8           0       -1.093010   -1.030986   -1.282007
     15          1           0        1.865325   -0.586896    1.360051
     16          8           0       -0.008984    3.277916   -0.407512
     17          1           0       -0.490717    3.876935   -0.996261
     18          8           0        1.169601   -2.888154    0.494463
     19          1           0        2.119534   -3.079887    0.433456
     20          8           0        3.157711   -0.808715   -0.252829
     21          1           0        3.642767    0.029107   -0.153176
     22          8           0        2.347327    1.753731    0.027796
     23          1           0        1.977902    2.607303   -0.260696
     24          8           0       -3.067095    0.230485    1.236232
     25          1           0       -2.559409   -1.081191   -1.149436
     26          1           0       -1.638559    0.114341    1.151324
     27          1           0       -3.413908   -0.268568    1.991326
     28          8           0       -3.540504   -1.016008   -0.855845
     29          1           0       -3.394757   -0.254526    0.392252
     30          1           0       -3.984587   -0.494305   -1.540673
 ---------------------------------------------------------------------

 Alpha  occ. eigenvalues --  -19.17398 -19.17320 -19.15653 -19.14744 -19.14023
 Alpha  occ. eigenvalues --  -19.13954 -19.13877 -19.11356 -10.27980 -10.24826
 Alpha  occ. eigenvalues --  -10.24549 -10.23655 -10.22987 -10.22901  -1.06094
 Alpha  occ. eigenvalues --   -1.04228  -1.03242  -1.02026  -1.01790  -1.01023
 Alpha  occ. eigenvalues --   -0.99940  -0.98275  -0.78318  -0.75275  -0.68883
 Alpha  occ. eigenvalues --   -0.63471  -0.61568  -0.56675  -0.55168  -0.54675
 Alpha  occ. eigenvalues --   -0.54412  -0.53203  -0.51707  -0.50100  -0.48580
 Alpha  occ. eigenvalues --   -0.46783  -0.45623  -0.44273  -0.43392  -0.42547
 Alpha  occ. eigenvalues --   -0.41848  -0.41624  -0.40754  -0.38532  -0.38197
 Alpha  occ. eigenvalues --   -0.36306  -0.35244  -0.34150  -0.34063  -0.32406
 Alpha  occ. eigenvalues --   -0.31323  -0.30330  -0.29465  -0.27745  -0.26737
 Alpha  occ. eigenvalues --   -0.26266  -0.26009  -0.24259
 Alpha virt. eigenvalues --    0.02598   0.04669   0.05859   0.08692   0.09477
 Alpha virt. eigenvalues --    0.10992   0.11598   0.12675   0.13839   0.14473
 Alpha virt. eigenvalues --    0.15194   0.16665   0.17261   0.17946   0.19349

 Mulliken charges:
               1
     1  H    0.156803
     2  C    0.144209
     3  C    0.118236
     4  C    0.298182
     5  C    0.126125
     6  O   -0.663320
     7  C    0.081311
     8  H    0.133041
     9  H    0.152343
    10  H    0.141686
    11  C   -0.091384
    12  H    0.156840
    13  H    0.156590
    14  O   -0.573264
    15  H    0.133878
    16  O   -0.638707
    17  H    0.408519
    18  O   -0.647979
    19  H    0.407242
    20  O   -0.663714
    21  H    0.415641
    22  O   -0.672223
    23  H    0.421710
    24  O   -0.835648
    25  H    0.451438
    26  H    0.473813
    27  H    0.404810
    28  O   -0.836977
    29  H    0.446592
    30  H    0.394206
 Sum of Mulliken charges =  -0.00000

 Dipole moment (field-independent basis, Debye):
    X=             -2.3727    Y=              3.5739    Z=             -0.0825  Tot=              4.2905
 Quadrupole moment (field-independent basis, Debye-Ang):
   XX=            -78.8998   YY=            -80.4478   ZZ=            -79.9618
   XY=             -5.2555   XZ=             -0.1718   YZ=             -7.6235

  Exact polarizability:   0.000   0.000   0.000   0.000   0.000   0.000
 Approx polarizability: 137.171   1.941 129.003   4.067  -2.066 130.282

 Normal termination of Gaussian 09 at Sat Jan 14 01:00:20 2017.
