 Gaussian 09, Revision E.01,
 Gaussian 09:  ES64L-G09RevE.01 30-Nov-2015

 -----------------------------------------
 # opt=(MaxCycle=1000) freq B3LYP/6-31G(d)
 -----------------------------------------

 -------------------------------------------------
 ./boats/6/glo_2w_alpha_ts_boat6_B3LYP_631Gd_r.out
 -------------------------------------------------
 Symbolic Z-matrix:
 Charge =  0 Multiplicity = 1

 SCF Done:  E(RB3LYP) =  -840.001318030     A.U. after   14 cycles
 SCF Done:  E(RB3LYP) =  -839.985438301     A.U. after   14 cycles
 SCF Done:  E(RB3LYP) =  -840.003473253     A.U. after   11 cycles
 SCF Done:  E(RB3LYP) =  -840.002240257     A.U. after   11 cycles
 SCF Done:  E(RB3LYP) =  -840.004615445     A.U. after    9 cycles
 SCF Done:  E(RB3LYP) =  -840.006204283     A.U. after   11 cycles
 SCF Done:  E(RB3LYP) =  -840.008797078     A.U. after   11 cycles
 SCF Done:  E(RB3LYP) =  -840.008260583     A.U. after   13 cycles
 SCF Done:  E(RB3LYP) =  -840.010011994     A.U. after   11 cycles
 SCF Done:  E(RB3LYP) =  -840.011286395     A.U. after   11 cycles
 SCF Done:  E(RB3LYP) =  -840.013273913     A.U. after    8 cycles
 SCF Done:  E(RB3LYP) =  -840.013277369     A.U. after    8 cycles
 SCF Done:  E(RB3LYP) =  -840.013277881     A.U. after    8 cycles
 SCF Done:  E(RB3LYP) =  -840.013278518     A.U. after    7 cycles
 SCF Done:  E(RB3LYP) =  -840.013278502     A.U. after    6 cycles
 SCF Done:  E(RB3LYP) =  -840.013278523     A.U. after    6 cycles
 SCF Done:  E(RB3LYP) =  -840.013278536     A.U. after    6 cycles
 SCF Done:  E(RB3LYP) =  -840.013278549     A.U. after    6 cycles
 SCF Done:  E(RB3LYP) =  -840.013278547     A.U. after    6 cycles
 Optimization completed.
    -- Stationary point found.
 Normal termination of Gaussian 09 at Sun Jan 15 12:52:48 2017.

 --------------------------------------------------------------------
 #N Geom=AllCheck Guess=TCheck SCRF=Check GenChk RB3LYP/6-31G(d) Freq
 --------------------------------------------------------------------

 Structure from the checkpoint file:  "/scratch/10462949.yak.local/Gau-15042.chk"
 -------------------------------------------------
 ./boats/6/glo_2w_alpha_ts_boat6_B3LYP_631Gd_r.out
 -------------------------------------------------
 Charge =  0 Multiplicity = 1

                         Standard orientation:
 ---------------------------------------------------------------------
 Center     Atomic      Atomic             Coordinates (Angstroms)
 Number     Number       Type             X           Y           Z
 ---------------------------------------------------------------------
      1          6           0       -0.246204    0.972514   -0.264329
      2          6           0       -2.185353   -0.332715    0.721166
      3          6           0       -1.776259    0.980581    0.011829
      4          6           0       -1.427098   -1.510465    0.091807
      5          1           0       -1.741446   -2.454830    0.556396
      6          1           0       -3.261216   -0.468011    0.580052
      7          1           0       -0.074539    0.629268   -1.289637
      8          1           0       -2.039250    1.805017    0.685915
      9          6           0        0.100579   -1.327868    0.323381
     10          8           0        0.406103    0.054543    0.641122
     11          6           0        0.359145    2.352484   -0.116869
     12          1           0       -0.293778    3.054608   -0.651736
     13          1           0        0.384964    2.637670    0.945742
     14          8           0        1.676748    2.371597   -0.686168
     15          1           0        1.994184    3.287831   -0.672509
     16          8           0       -1.731618   -1.521057   -1.302694
     17          1           0       -0.929834   -1.871363   -1.737482
     18          8           0       -1.966129   -0.281055    2.125545
     19          1           0       -1.032957   -0.033653    2.241380
     20          8           0       -2.492907    1.201917   -1.189778
     21          1           0       -2.405305    0.365910   -1.687285
     22          8           0        3.363953   -1.803328   -0.274598
     23          1           0        1.736211   -1.833557   -0.645722
     24          1           0        3.470085   -0.904958    0.144407
     25          1           0        3.898850   -1.774346   -1.081886
     26          8           0        0.750730   -1.766406   -0.814906
     27          1           0        0.426997   -1.863441    1.221724
     28          8           0        3.202070    0.617639    0.912235
     29          1           0        2.914308    1.257302    0.226711
     30          1           0        2.332275    0.368566    1.275948
 ---------------------------------------------------------------------

 SCF Done:  E(RB3LYP) =  -840.013278547     A.U. after    1 cycles

 The electronic state is 1-A.
 Alpha  occ. eigenvalues --  -19.18561 -19.17957 -19.15701 -19.15466 -19.15114
 Alpha  occ. eigenvalues --  -19.14637 -19.14609 -19.13846 -10.29744 -10.25855
 Alpha  occ. eigenvalues --  -10.24925 -10.24314 -10.23946 -10.23721  -1.08394
 Alpha  occ. eigenvalues --   -1.05270  -1.03094  -1.02812  -1.01463  -1.01276
 Alpha  occ. eigenvalues --   -1.00498  -0.99460  -0.78879  -0.76543  -0.70024
 Alpha  occ. eigenvalues --   -0.65113  -0.63103  -0.58169  -0.55566  -0.54559
 Alpha  occ. eigenvalues --   -0.53858  -0.53242  -0.52592  -0.51294  -0.50971
 Alpha  occ. eigenvalues --   -0.46426  -0.46262  -0.44925  -0.43642  -0.43614
 Alpha  occ. eigenvalues --   -0.42487  -0.41418  -0.40391  -0.38668  -0.38525
 Alpha  occ. eigenvalues --   -0.37686  -0.37163  -0.35545  -0.33615  -0.32495
 Alpha  occ. eigenvalues --   -0.31148  -0.31016  -0.30751  -0.30242  -0.29786
 Alpha  occ. eigenvalues --   -0.28326  -0.27029  -0.24855
 Alpha virt. eigenvalues --    0.03721   0.06122   0.06871   0.08722   0.10363
 Alpha virt. eigenvalues --    0.11302   0.12278   0.13044   0.13686   0.14223
 Alpha virt. eigenvalues --    0.15255   0.15897   0.16755   0.17910   0.18843

 Mulliken charges:
               1
     1  C    0.126444
     2  C    0.100766
     3  C    0.082195
     4  C    0.073733
     5  H    0.145421
     6  H    0.162811
     7  H    0.161639
     8  H    0.143416
     9  C    0.328089
    10  O   -0.556200
    11  C   -0.079820
    12  H    0.167298
    13  H    0.141855
    14  O   -0.629612
    15  H    0.410844
    16  O   -0.664969
    17  H    0.429820
    18  O   -0.638699
    19  H    0.399039
    20  O   -0.647416
    21  H    0.416497
    22  O   -0.822478
    23  H    0.446995
    24  H    0.431617
    25  H    0.398009
    26  O   -0.682404
    27  H    0.145997
    28  O   -0.828819
    29  H    0.422607
    30  H    0.415326
 Sum of Mulliken charges =  -0.00000

 Dipole moment (field-independent basis, Debye):
    X=              2.5899    Y=              2.2369    Z=             -1.2493  Tot=              3.6431
 Quadrupole moment (field-independent basis, Debye-Ang):
   XX=            -93.3001   YY=            -74.2878   ZZ=            -85.7032
   XY=              6.1467   XZ=             -6.9034   YZ=              2.0713

  Exact polarizability: 101.651  -0.225  96.013  -1.724   0.143  83.703
 Approx polarizability: 130.122  -2.244 125.178   0.503   1.879 129.519

                      1                      2                      3
                      A                      A                      A
 Frequencies --     45.2848                58.7616                74.2610
 Red. masses --      5.1208                 5.8902                 5.9179
 Frc consts  --      0.0062                 0.0120                 0.0192
 IR Inten    --      4.0997                 2.1879                 3.5382

                      4                      5                      6
                      A                      A                      A
 Frequencies --    106.0929               120.6130               126.1341
 Red. masses --      5.8377                 4.2799                 5.9300
 Frc consts  --      0.0387                 0.0367                 0.0556
 IR Inten    --      5.9734                10.2264                 4.9704

                      7                      8                      9
                      A                      A                      A
 Frequencies --    179.0416               203.7632               219.8421
 Red. masses --      4.9507                 4.1040                 4.2235
 Frc consts  --      0.0935                 0.1004                 0.1203
 IR Inten    --      1.3486                 7.0119                 4.9424

                     10                     11                     12
                      A                      A                      A
 Frequencies --    227.3961               239.8590               257.9393
 Red. masses --      4.0060                 4.6364                 4.1565
 Frc consts  --      0.1220                 0.1572                 0.1629
 IR Inten    --     21.3390                 7.8453                29.1451

                     13                     14                     15
                      A                      A                      A
 Frequencies --    271.3207               302.3001               309.6838
 Red. masses --      1.5818                 4.5786                 3.6336
 Frc consts  --      0.0686                 0.2465                 0.2053
 IR Inten    --     76.7095                25.1655                37.2606

                     16                     17                     18
                      A                      A                      A
 Frequencies --    332.7680               370.2337               389.7970
 Red. masses --      1.2501                 1.4373                 2.9278
 Frc consts  --      0.0816                 0.1161                 0.2621
 IR Inten    --     78.0691                23.2672                17.5461

                     19                     20                     21
                      A                      A                      A
 Frequencies --    406.2613               426.0968               454.0191
 Red. masses --      3.5628                 3.1662                 1.6780
 Frc consts  --      0.3465                 0.3387                 0.2038
 IR Inten    --     41.8717                 2.0822                27.7265

                     22                     23                     24
                      A                      A                      A
 Frequencies --    475.0539               480.8588               525.3494
 Red. masses --      4.1481                 2.5238                 1.1645
 Frc consts  --      0.5515                 0.3438                 0.1894
 IR Inten    --     14.7844                54.6922                27.2988

                     25                     26                     27
                      A                      A                      A
 Frequencies --    527.4801               551.2847               582.2669
 Red. masses --      5.6463                 1.1605                 3.8890
 Frc consts  --      0.9256                 0.2078                 0.7768
 IR Inten    --     31.3640                87.2721                 4.6345

                     28                     29                     30
                      A                      A                      A
 Frequencies --    590.4239               653.4895               686.4660
 Red. masses --      3.6181                 1.1328                 1.3642
 Frc consts  --      0.7431                 0.2850                 0.3788
 IR Inten    --      3.6505               194.9774                76.8208

                     31                     32                     33
                      A                      A                      A
 Frequencies --    701.6560               709.0545               791.8661
 Red. masses --      1.3941                 1.5929                 2.8018
 Frc consts  --      0.4044                 0.4718                 1.0351
 IR Inten    --     68.9559                 4.0374                 3.4913

                     34                     35                     36
                      A                      A                      A
 Frequencies --    807.9786               862.7599               873.0044
 Red. masses --      1.1538                 4.1321                 2.5647
 Frc consts  --      0.4438                 1.8122                 1.1516
 IR Inten    --    177.0941                66.5222                14.3898

                     37                     38                     39
                      A                      A                      A
 Frequencies --    910.4924               993.7023               996.2729
 Red. masses --      2.9153                 1.8962                 1.5583
 Frc consts  --      1.4239                 1.1032                 0.9113
 IR Inten    --     15.1554               135.0981               254.4296

                     40                     41                     42
                      A                      A                      A
 Frequencies --   1031.1031              1054.7936              1073.4509
 Red. masses --      3.3368                 3.7369                 3.1328
 Frc consts  --      2.0902                 2.4496                 2.1269
 IR Inten    --     51.6626                92.4093               140.6765

                     43                     44                     45
                      A                      A                      A
 Frequencies --   1091.2869              1099.7322              1108.7967
 Red. masses --      3.5171                 4.1906                 4.1651
 Frc consts  --      2.4678                 2.9861                 3.0171
 IR Inten    --     39.1392                54.4604                52.1908

                     46                     47                     48
                      A                      A                      A
 Frequencies --   1133.9914              1143.6064              1175.9242
 Red. masses --      2.3631                 2.6826                 4.0726
 Frc consts  --      1.7904                 2.0671                 3.3181
 IR Inten    --      5.0340                 4.1153                99.3164

                     49                     50                     51
                      A                      A                      A
 Frequencies --   1226.7504              1252.9261              1274.2612
 Red. masses --      1.1826                 1.3111                 1.1887
 Frc consts  --      1.0486                 1.2127                 1.1372
 IR Inten    --     31.0469                64.7114                 1.9360

                     52                     53                     54
                      A                      A                      A
 Frequencies --   1280.6320              1305.6388              1329.2304
 Red. masses --      1.1407                 1.2887                 1.2537
 Frc consts  --      1.1022                 1.2944                 1.3052
 IR Inten    --     14.7648                11.0563                65.3858

                     55                     56                     57
                      A                      A                      A
 Frequencies --   1338.4813              1349.6840              1386.3611
 Red. masses --      1.2507                 1.3226                 1.3401
 Frc consts  --      1.3202                 1.4195                 1.5176
 IR Inten    --     23.3824                 8.5768                 7.7306

                     58                     59                     60
                      A                      A                      A
 Frequencies --   1394.1563              1413.9916              1422.8641
 Red. masses --      1.2420                 1.4038                 1.2137
 Frc consts  --      1.4224                 1.6537                 1.4478
 IR Inten    --      9.5885                 4.7011                 8.9201

                     61                     62                     63
                      A                      A                      A
 Frequencies --   1446.9613              1455.1294              1470.7687
 Red. masses --      1.2904                 1.4639                 1.2512
 Frc consts  --      1.5918                 1.8263                 1.5947
 IR Inten    --     19.4402                87.0579                81.1075

                     64                     65                     66
                      A                      A                      A
 Frequencies --   1480.5003              1529.3385              1553.1427
 Red. masses --      1.4844                 1.0851                 1.2167
 Frc consts  --      1.9169                 1.4954                 1.7293
 IR Inten    --     13.8847                 7.8550                54.2986

                     67                     68                     69
                      A                      A                      A
 Frequencies --   1758.0609              1782.4284              3018.2388
 Red. masses --      1.0740                 1.0726                 1.0610
 Frc consts  --      1.9559                 2.0078                 5.6946
 IR Inten    --    147.3175               169.0151                29.6981

                     70                     71                     72
                      A                      A                      A
 Frequencies --   3041.0428              3062.8705              3073.8655
 Red. masses --      1.0860                 1.0866                 1.1004
 Frc consts  --      5.9175                 6.0061                 6.1257
 IR Inten    --     34.6774                29.1398                21.2042

                     73                     74                     75
                      A                      A                      A
 Frequencies --   3077.8078              3095.3690              3112.0494
 Red. masses --      1.0872                 1.0872                 1.0877
 Frc consts  --      6.0677                 6.1376                 6.2065
 IR Inten    --     66.9256                20.8129                32.7042

                     76                     77                     78
                      A                      A                      A
 Frequencies --   3151.1525              3315.8899              3600.3466
 Red. masses --      1.0709                 1.0628                 1.0570
 Frc consts  --      6.2651                 6.8852                 8.0726
 IR Inten    --   1051.7743               996.7664               253.1168

                     79                     80                     81
                      A                      A                      A
 Frequencies --   3637.0235              3649.0706              3707.0277
 Red. masses --      1.0652                 1.0645                 1.0667
 Frc consts  --      8.3017                 8.3517                 8.6369
 IR Inten    --    134.9545                43.6807               169.2613

                     82                     83                     84
                      A                      A                      A
 Frequencies --   3711.5196              3753.4592              3797.8828
 Red. masses --      1.0658                 1.0664                 1.0668
 Frc consts  --      8.6504                 8.8517                 9.0662
 IR Inten    --      5.1661                29.7660                42.9013

 - Thermochemistry -
 -------------------
 Temperature   298.150 Kelvin.  Pressure   1.00000 Atm.
 Atom     1 has atomic number  6 and mass  12.00000

 Molecular mass:   216.08452 amu.
 Principal axes and moments of inertia in atomic units:
                           1         2         3
     Eigenvalues --  2294.000303562.751974497.88411
           X            0.99999   0.00052  -0.00363
           Y           -0.00051   0.99999   0.00416
           Z            0.00363  -0.00415   0.99998
 This molecule is an asymmetric top.
 Rotational symmetry number  1.
 Warning -- assumption of classical behavior for rotation
           may cause significant error
 Rotational temperatures (Kelvin)      0.03776     0.02431     0.01926
 Rotational constants (GHZ):           0.78672     0.50656     0.40124
 Zero-point vibrational energy     658003.2 (Joules/Mol)
                                  157.26653 (Kcal/Mol)
 Warning -- explicit consideration of  28 degrees of freedom as
           vibrations may cause significant error
 Vibrational temperatures:     65.15    84.54   106.84   152.64   173.54
          (Kelvin)            181.48   257.60   293.17   316.30   327.17
                              345.10   371.12   390.37   434.94   445.57
                              478.78   532.68   560.83   584.52   613.06
                              653.23   683.50   691.85   755.86   758.93
                              793.17   837.75   849.49   940.22   987.67
                             1009.53  1020.17  1139.32  1162.50  1241.32
                             1256.06  1309.99  1429.71  1433.41  1483.53
                             1517.61  1544.45  1570.12  1582.27  1595.31
                             1631.56  1645.39  1691.89  1765.02  1802.68
                             1833.38  1842.54  1878.52  1912.46  1925.77
                             1941.89  1994.66  2005.88  2034.42  2047.18
                             2081.85  2093.60  2116.11  2130.11  2200.37
                             2234.62  2529.45  2564.51  4342.57  4375.38
                             4406.78  4422.60  4428.27  4453.54  4477.54
                             4533.80  4770.82  5180.09  5232.86  5250.19
                             5333.58  5340.04  5400.38  5464.30

 Zero-point correction=                           0.250620 (Hartree/Particle)
 Thermal correction to Energy=                    0.267027
 Thermal correction to Enthalpy=                  0.267971
 Thermal correction to Gibbs Free Energy=         0.207901
 Sum of electronic and zero-point Energies=           -839.762658
 Sum of electronic and thermal Energies=              -839.746252
 Sum of electronic and thermal Enthalpies=            -839.745308
 Sum of electronic and thermal Free Energies=         -839.805378

                     E (Thermal)             CV                S
                      KCal/Mol        Cal/Mol-Kelvin    Cal/Mol-Kelvin
 Total                  167.562             62.420            126.429
 Electronic               0.000              0.000              0.000
 Translational            0.889              2.981             42.015
 Rotational               0.889              2.981             31.975
 Vibrational            165.784             56.459             52.439
 Vibration     1          0.595              1.979              5.013
 Vibration     2          0.596              1.974              4.498
 Vibration     3          0.599              1.966              4.037
 Vibration     4          0.605              1.944              3.339
 Vibration     5          0.609              1.932              3.091
 Vibration     6          0.611              1.927              3.004
 Vibration     7          0.629              1.868              2.338
 Vibration     8          0.639              1.835              2.099
 Vibration     9          0.647              1.811              1.960
 Vibration    10          0.651              1.799              1.899
 Vibration    11          0.657              1.779              1.804
 Vibration    12          0.667              1.749              1.676
 Vibration    13          0.675              1.726              1.588
 Vibration    14          0.694              1.669              1.404
 Vibration    15          0.699              1.655              1.364
 Vibration    16          0.715              1.610              1.247
 Vibration    17          0.742              1.533              1.079
 Vibration    18          0.758              1.492              1.001
 Vibration    19          0.771              1.457              0.940
 Vibration    20          0.788              1.413              0.872
 Vibration    21          0.812              1.352              0.784
 Vibration    22          0.832              1.305              0.724
 Vibration    23          0.837              1.293              0.708
 Vibration    24          0.880              1.194              0.598
 Vibration    25          0.882              1.189              0.593
 Vibration    26          0.907              1.137              0.542
 Vibration    27          0.939              1.070              0.481
 Vibration    28          0.948              1.052              0.466

 Normal termination of Gaussian 09 at Sun Jan 15 13:10:03 2017.
