 Gaussian 09, Revision E.01,
 Gaussian 09:  ES64L-G09RevE.01 30-Nov-2015

 -----------------------------------------
 # opt=(MaxCycle=1000) freq B3LYP/6-31G(d)
 -----------------------------------------

 ------------------------------------------------
 ./boats/6/glo_2w_beta_ts_boat6_B3LYP_631Gd_r.out
 ------------------------------------------------
 Symbolic Z-matrix:
 Charge =  0 Multiplicity = 1

 SCF Done:  E(RB3LYP) =  -839.968282145     A.U. after   14 cycles
 SCF Done:  E(RB3LYP) =  -839.962827744     A.U. after   14 cycles
 SCF Done:  E(RB3LYP) =  -839.971323385     A.U. after   11 cycles
 SCF Done:  E(RB3LYP) =  -839.973047991     A.U. after   13 cycles
 SCF Done:  E(RB3LYP) =  -839.976665696     A.U. after   12 cycles
 SCF Done:  E(RB3LYP) =  -839.980451209     A.U. after   13 cycles
 SCF Done:  E(RB3LYP) =  -839.979137899     A.U. after   13 cycles
 SCF Done:  E(RB3LYP) =  -839.982387232     A.U. after   11 cycles
 SCF Done:  E(RB3LYP) =  -839.983565551     A.U. after   13 cycles
 SCF Done:  E(RB3LYP) =  -839.982279992     A.U. after   13 cycles
 SCF Done:  E(RB3LYP) =  -839.985733871     A.U. after    9 cycles
 SCF Done:  E(RB3LYP) =  -839.985741120     A.U. after    9 cycles
 SCF Done:  E(RB3LYP) =  -839.985743859     A.U. after    8 cycles
 SCF Done:  E(RB3LYP) =  -839.985745155     A.U. after    8 cycles
 SCF Done:  E(RB3LYP) =  -839.985745998     A.U. after    8 cycles
 SCF Done:  E(RB3LYP) =  -839.985746610     A.U. after    8 cycles
 SCF Done:  E(RB3LYP) =  -839.985747056     A.U. after    8 cycles
 SCF Done:  E(RB3LYP) =  -839.985747265     A.U. after    7 cycles
 SCF Done:  E(RB3LYP) =  -839.985747341     A.U. after    7 cycles
 Optimization completed.
    -- Stationary point found.
 Normal termination of Gaussian 09 at Sun Jan 15 13:15:33 2017.

 --------------------------------------------------------------------
 #N Geom=AllCheck Guess=TCheck SCRF=Check GenChk RB3LYP/6-31G(d) Freq
 --------------------------------------------------------------------

 Structure from the checkpoint file:  "/scratch/10462956.yak.local/Gau-13191.chk"
 ------------------------------------------------
 ./boats/6/glo_2w_beta_ts_boat6_B3LYP_631Gd_r.out
 ------------------------------------------------
 Charge =  0 Multiplicity = 1

                         Standard orientation:
 ---------------------------------------------------------------------
 Center     Atomic      Atomic             Coordinates (Angstroms)
 Number     Number       Type             X           Y           Z
 ---------------------------------------------------------------------
      1          6           0       -1.318199    0.556989   -0.308633
      2          6           0       -0.090895   -1.390619    0.985425
      3          6           0       -1.290772   -0.414135    0.897221
      4          6           0        0.280042   -2.064856   -0.368379
      5          1           0        0.891495   -2.949740   -0.121870
      6          1           0       -0.434789   -2.201637    1.647414
      7          1           0       -1.837233    0.044795   -1.125016
      8          1           0       -1.296314    0.151916    1.840610
      9          6           0        1.208764   -1.195044   -1.208574
     10          1           0        0.883216   -0.958406   -2.231446
     11          8           0       -0.026538    0.854962   -0.795993
     12          6           0       -2.117105    1.811324    0.041566
     13          1           0       -3.033277    1.504369    0.573194
     14          1           0       -1.515599    2.432134    0.724708
     15          8           0       -2.420105    2.496235   -1.162896
     16          1           0       -2.752294    3.375823   -0.930816
     17          8           0        2.333141   -0.916861   -0.791961
     18          8           0       -0.846332   -2.466845   -1.114007
     19          1           0       -1.653202   -2.240088   -0.612895
     20          8           0        1.034293   -0.781918    1.607975
     21          1           0        1.786817   -0.839870    0.981616
     22          8           0       -2.505334   -1.185020    0.779153
     23          1           0       -2.671099   -1.634563    1.623608
     24          8           0        1.328066    2.058935    1.218051
     25          1           0        2.215109    2.040767    0.785554
     26          1           0        1.283947    1.212556    1.702458
     27          1           0        0.446716    1.418381   -0.123233
     28          8           0        3.600832    1.544074   -0.285858
     29          1           0        3.255406    0.751029   -0.742864
     30          1           0        4.415903    1.242071    0.141518
 ---------------------------------------------------------------------

 SCF Done:  E(RB3LYP) =  -839.985747341     A.U. after    1 cycles

 The electronic state is 1-A.
 Alpha  occ. eigenvalues --  -19.18508 -19.17251 -19.16708 -19.15426 -19.15389
 Alpha  occ. eigenvalues --  -19.13906 -19.13676 -19.13159 -10.29850 -10.26634
 Alpha  occ. eigenvalues --  -10.26168 -10.25698 -10.23691 -10.22870  -1.07331
 Alpha  occ. eigenvalues --   -1.05696  -1.03662  -1.02906  -1.02148  -1.01278
 Alpha  occ. eigenvalues --   -1.00424  -0.98495  -0.78453  -0.75400  -0.70763
 Alpha  occ. eigenvalues --   -0.64875  -0.60946  -0.59267  -0.55946  -0.53745
 Alpha  occ. eigenvalues --   -0.53099  -0.51953  -0.50988  -0.50451  -0.49553
 Alpha  occ. eigenvalues --   -0.47935  -0.46257  -0.45786  -0.44711  -0.44156
 Alpha  occ. eigenvalues --   -0.41212  -0.40388  -0.40053  -0.39638  -0.38901
 Alpha  occ. eigenvalues --   -0.37904  -0.36647  -0.35187  -0.34634  -0.32680
 Alpha  occ. eigenvalues --   -0.32039  -0.30682  -0.29264  -0.29069  -0.27941
 Alpha  occ. eigenvalues --   -0.27088  -0.26278  -0.25998
 Alpha virt. eigenvalues --   -0.03932   0.03715   0.05745   0.07686   0.08801
 Alpha virt. eigenvalues --    0.09538   0.11212   0.11847   0.14187   0.14807
 Alpha virt. eigenvalues --    0.15786   0.16087   0.16897   0.18287   0.18441

 Mulliken charges:
               1
     1  C    0.152652
     2  C    0.116999
     3  C    0.024993
     4  C    0.061537
     5  H    0.161892
     6  H    0.123652
     7  H    0.164023
     8  H    0.148261
     9  C    0.287074
    10  H    0.175232
    11  O   -0.671128
    12  C   -0.060879
    13  H    0.125853
    14  H    0.142215
    15  O   -0.613228
    16  H    0.394950
    17  O   -0.481953
    18  O   -0.661051
    19  H    0.429861
    20  O   -0.670429
    21  H    0.422251
    22  O   -0.630265
    23  H    0.404723
    24  O   -0.842729
    25  H    0.432533
    26  H    0.407956
    27  H    0.429498
    28  O   -0.805753
    29  H    0.433284
    30  H    0.397976
 Sum of Mulliken charges =  -0.00000

 Dipole moment (field-independent basis, Debye):
    X=             -0.3811    Y=             -2.0644    Z=              3.3370  Tot=              3.9425
 Quadrupole moment (field-independent basis, Debye-Ang):
   XX=            -72.0821   YY=            -84.1540   ZZ=            -86.2560
   XY=             -5.5034   XZ=             -6.4144   YZ=             -2.7240

  Exact polarizability: 107.517  -0.575  97.167  -0.957   0.055  85.407
 Approx polarizability: 147.221   4.660 127.166   3.023   2.208 127.439

                      1                      2                      3
                      A                      A                      A
 Frequencies --     44.9605                54.8255                68.9537
 Red. masses --      5.9740                 5.9896                 6.7789
 Frc consts  --      0.0071                 0.0106                 0.0190
 IR Inten    --      0.5789                 2.7816                 1.2339

                      4                      5                      6
                      A                      A                      A
 Frequencies --     88.3452               104.2536               116.6480
 Red. masses --      6.3378                 6.2025                 6.4233
 Frc consts  --      0.0291                 0.0397                 0.0515
 IR Inten    --      4.7595                 8.2280                 6.9284

                      7                      8                      9
                      A                      A                      A
 Frequencies --    149.4245               166.5209               179.4587
 Red. masses --      3.5083                 5.0171                 4.0595
 Frc consts  --      0.0462                 0.0820                 0.0770
 IR Inten    --     16.6942                 1.2861                 9.4744

                     10                     11                     12
                      A                      A                      A
 Frequencies --    202.1289               219.0328               237.3092
 Red. masses --      1.4176                 4.6238                 4.3949
 Frc consts  --      0.0341                 0.1307                 0.1458
 IR Inten    --     89.9921                 5.2000                13.9494

                     13                     14                     15
                      A                      A                      A
 Frequencies --    249.9795               257.6481               261.6622
 Red. masses --      3.2307                 2.8650                 2.2153
 Frc consts  --      0.1189                 0.1121                 0.0894
 IR Inten    --     52.6649                44.1221                32.2403

                     16                     17                     18
                      A                      A                      A
 Frequencies --    262.1169               306.2867               318.9765
 Red. masses --      3.2139                 4.3156                 3.4262
 Frc consts  --      0.1301                 0.2385                 0.2054
 IR Inten    --      9.6011                17.2363                 6.5758

                     19                     20                     21
                      A                      A                      A
 Frequencies --    341.7951               352.6722               372.8102
 Red. masses --      1.4281                 1.9043                 1.7417
 Frc consts  --      0.0983                 0.1396                 0.1426
 IR Inten    --     50.7619                20.7274                58.0425

                     22                     23                     24
                      A                      A                      A
 Frequencies --    379.6978               421.1649               460.0254
 Red. masses --      3.4217                 3.8380                 3.4894
 Frc consts  --      0.2906                 0.4011                 0.4351
 IR Inten    --      2.8295                14.6262                49.2450

                     25                     26                     27
                      A                      A                      A
 Frequencies --    485.9439               496.7824               516.2841
 Red. masses --      1.6698                 2.1016                 3.0390
 Frc consts  --      0.2323                 0.3056                 0.4773
 IR Inten    --     16.1578                21.3052                 9.7098

                     28                     29                     30
                      A                      A                      A
 Frequencies --    551.6412               575.2987               587.5520
 Red. masses --      2.5825                 1.1874                 2.3382
 Frc consts  --      0.4630                 0.2315                 0.4756
 IR Inten    --     22.6485               168.5231                62.5083

                     31                     32                     33
                      A                      A                      A
 Frequencies --    618.5140               637.9732               650.1518
 Red. masses --      1.7177                 1.1182                 1.0997
 Frc consts  --      0.3872                 0.2682                 0.2739
 IR Inten    --     41.5171               196.6965               269.0322

                     34                     35                     36
                      A                      A                      A
 Frequencies --    728.0396               824.4372               887.2327
 Red. masses --      2.5460                 3.6988                 1.0624
 Frc consts  --      0.7951                 1.4812                 0.4927
 IR Inten    --     19.5084                18.4030               125.8025

                     37                     38                     39
                      A                      A                      A
 Frequencies --    915.3561               954.6531               972.1944
 Red. masses --      2.2521                 2.0840                 1.3360
 Frc consts  --      1.1118                 1.1190                 0.7440
 IR Inten    --     21.5271                41.5576               159.7948

                     40                     41                     42
                      A                      A                      A
 Frequencies --    990.8495              1044.4611              1058.6108
 Red. masses --      1.7969                 5.2106                 2.3529
 Frc consts  --      1.0394                 3.3491                 1.5535
 IR Inten    --     48.5379                50.5189                29.6261

                     43                     44                     45
                      A                      A                      A
 Frequencies --   1076.9494              1108.4579              1111.2927
 Red. masses --      2.9037                 5.6297                 3.8642
 Frc consts  --      1.9842                 4.0754                 2.8117
 IR Inten    --     32.9783                75.5366                61.2934

                     46                     47                     48
                      A                      A                      A
 Frequencies --   1137.6700              1154.2427              1164.2608
 Red. masses --      2.7523                 3.6507                 3.0628
 Frc consts  --      2.0988                 2.8656                 2.4461
 IR Inten    --      5.6967                83.9083                36.6902

                     49                     50                     51
                      A                      A                      A
 Frequencies --   1218.0172              1247.8725              1275.0903
 Red. masses --      1.1153                 1.2980                 1.1833
 Frc consts  --      0.9748                 1.1909                 1.1335
 IR Inten    --     16.0571                18.5449                18.9278

                     52                     53                     54
                      A                      A                      A
 Frequencies --   1291.4104              1323.7065              1345.8857
 Red. masses --      1.1613                 1.1376                 1.2880
 Frc consts  --      1.1411                 1.1744                 1.3747
 IR Inten    --     44.6013                30.5281                20.6640

                     55                     56                     57
                      A                      A                      A
 Frequencies --   1358.9502              1365.4275              1382.2491
 Red. masses --      1.1735                 1.1895                 1.2968
 Frc consts  --      1.2768                 1.3067                 1.4598
 IR Inten    --      2.2516                 5.3088                11.9856

                     58                     59                     60
                      A                      A                      A
 Frequencies --   1393.3137              1407.0749              1460.2175
 Red. masses --      1.2351                 1.4161                 1.3270
 Frc consts  --      1.4127                 1.6519                 1.6670
 IR Inten    --      1.7909                43.0721                16.3026

                     61                     62                     63
                      A                      A                      A
 Frequencies --   1468.0632              1480.0516              1507.2946
 Red. masses --      1.3124                 1.4855                 1.2626
 Frc consts  --      1.6665                 1.9172                 1.6902
 IR Inten    --     62.4676                 1.7435                79.2401

                     64                     65                     66
                      A                      A                      A
 Frequencies --   1533.0226              1555.4620              1726.3199
 Red. masses --      1.1086                 1.1160                 1.0870
 Frc consts  --      1.5350                 1.5909                 1.9086
 IR Inten    --     26.0308                25.8957                88.1518

                     67                     68                     69
                      A                      A                      A
 Frequencies --   1731.3277              1764.1117              2977.9979
 Red. masses --      6.6052                 1.1024                 1.0822
 Frc consts  --     11.6653                 2.0213                 5.6547
 IR Inten    --    150.7715                79.7742                42.3284

                     70                     71                     72
                      A                      A                      A
 Frequencies --   2986.3179              2993.0263              3023.8639
 Red. masses --      1.0569                 1.0845                 1.0857
 Frc consts  --      5.5534                 5.7239                 5.8490
 IR Inten    --     42.6454                70.6109                28.7977

                     73                     74                     75
                      A                      A                      A
 Frequencies --   3026.3968              3079.3600              3096.2843
 Red. masses --      1.1049                 1.0915                 1.0859
 Frc consts  --      5.9625                 6.0981                 6.1338
 IR Inten    --     36.4608                31.8081                45.0279

                     76                     77                     78
                      A                      A                      A
 Frequencies --   3251.3154              3482.5662              3535.1690
 Red. masses --      1.0695                 1.0591                 1.0672
 Frc consts  --      6.6613                 7.5683                 7.8581
 IR Inten    --    653.9908               277.9527               229.3789

                     79                     80                     81
                      A                      A                      A
 Frequencies --   3620.1846              3625.8374              3677.3687
 Red. masses --      1.0663                 1.0554                 1.0697
 Frc consts  --      8.2333                 8.1750                 8.5226
 IR Inten    --    239.2183               223.0073               277.4660

                     82                     83                     84
                      A                      A                      A
 Frequencies --   3734.8772              3763.1618              3811.4006
 Red. masses --      1.0663                 1.0665                 1.0731
 Frc consts  --      8.7639                 8.8989                 9.1848
 IR Inten    --     18.9885                17.8214                96.4945

 - Thermochemistry -
 -------------------
 Temperature   298.150 Kelvin.  Pressure   1.00000 Atm.
 Atom     1 has atomic number  6 and mass  12.00000

 Molecular mass:   216.08452 amu.
 Principal axes and moments of inertia in atomic units:
                           1         2         3
     Eigenvalues --  2682.479483344.556044587.01331
           X            0.99997   0.00476  -0.00534
           Y           -0.00477   0.99999  -0.00101
           Z            0.00534   0.00104   0.99999
 This molecule is an asymmetric top.
 Rotational symmetry number  1.
 Warning -- assumption of classical behavior for rotation
           may cause significant error
 Rotational temperatures (Kelvin)      0.03229     0.02590     0.01888
 Rotational constants (GHZ):           0.67279     0.53961     0.39345
 Zero-point vibrational energy     648289.5 (Joules/Mol)
                                  154.94491 (Kcal/Mol)
 Warning -- explicit consideration of  31 degrees of freedom as
           vibrations may cause significant error
 Vibrational temperatures:     64.69    78.88    99.21   127.11   150.00
          (Kelvin)            167.83   214.99   239.59   258.20   290.82
                              315.14   341.43   359.66   370.70   376.47
                              377.13   440.68   458.94   491.77   507.42
                              536.39   546.30   605.96   661.87   699.16
                              714.76   742.82   793.69   827.73   845.36
                              889.90   917.90   935.42  1047.49  1186.18
                             1276.53  1316.99  1373.53  1398.77  1425.61
                             1502.74  1523.10  1549.49  1594.82  1598.90
                             1636.85  1660.70  1675.11  1752.45  1795.41
                             1834.57  1858.05  1904.52  1936.43  1955.22
                             1964.54  1988.75  2004.67  2024.46  2100.92
                             2112.21  2129.46  2168.66  2205.67  2237.96
                             2483.79  2490.99  2538.16  4284.67  4296.64
                             4306.29  4350.66  4354.30  4430.51  4454.86
                             4677.91  5010.63  5086.31  5208.63  5216.76
                             5290.91  5373.65  5414.34  5483.75

 Zero-point correction=                           0.246920 (Hartree/Particle)
 Thermal correction to Energy=                    0.264881
 Thermal correction to Enthalpy=                  0.265825
 Thermal correction to Gibbs Free Energy=         0.202319
 Sum of electronic and zero-point Energies=           -839.738827
 Sum of electronic and thermal Energies=              -839.720867
 Sum of electronic and thermal Enthalpies=            -839.719922
 Sum of electronic and thermal Free Energies=         -839.783428

                     E (Thermal)             CV                S
                      KCal/Mol        Cal/Mol-Kelvin    Cal/Mol-Kelvin
 Total                  166.215             65.855            133.659
 Electronic               0.000              0.000              0.000
 Translational            0.889              2.981             42.015
 Rotational               0.889              2.981             32.087
 Vibrational            164.438             59.893             59.557
 Vibration     1          0.595              1.979              5.028
 Vibration     2          0.596              1.976              4.635
 Vibration     3          0.598              1.969              4.183
 Vibration     4          0.601              1.957              3.696
 Vibration     5          0.605              1.946              3.373
 Vibration     6          0.608              1.936              3.155
 Vibration     7          0.618              1.903              2.680
 Vibration     8          0.624              1.884              2.474
 Vibration     9          0.629              1.868              2.334
 Vibration    10          0.639              1.837              2.114
 Vibration    11          0.647              1.812              1.967
 Vibration    12          0.656              1.784              1.823
 Vibration    13          0.663              1.763              1.731
 Vibration    14          0.667              1.750              1.678
 Vibration    15          0.669              1.743              1.651
 Vibration    16          0.669              1.742              1.648
 Vibration    17          0.697              1.662              1.382
 Vibration    18          0.705              1.637              1.315
 Vibration    19          0.721              1.592              1.204
 Vibration    20          0.729              1.570              1.154
 Vibration    21          0.744              1.528              1.068
 Vibration    22          0.750              1.513              1.040
 Vibration    23          0.784              1.424              0.888
 Vibration    24          0.818              1.339              0.766
 Vibration    25          0.842              1.281              0.694
 Vibration    26          0.852              1.257              0.666
 Vibration    27          0.871              1.214              0.619
 Vibration    28          0.907              1.136              0.541
 Vibration    29          0.932              1.085              0.494
 Vibration    30          0.945              1.058              0.472
 Vibration    31          0.978              0.993              0.419

 Normal termination of Gaussian 09 at Sun Jan 15 13:35:19 2017.
