 Gaussian 09, Revision E.01,
 Gaussian 09:  ES64L-G09RevE.01 30-Nov-2015

 -----------------------------------------
 # opt=(MaxCycle=1000) freq B3LYP/6-31G(d)
 -----------------------------------------

 -----------------------------------------------
 ./boats/6/glo_1w_alpha_ts_boat6_B3LYP_631Gd.out
 -----------------------------------------------
 Symbolic Z-matrix:
 Charge =  0 Multiplicity = 1

 SCF Done:  E(RB3LYP) =  -839.981446204     A.U. after   14 cycles
 SCF Done:  E(RB3LYP) =  -839.989292343     A.U. after   12 cycles
 SCF Done:  E(RB3LYP) =  -839.994459902     A.U. after   11 cycles
 SCF Done:  E(RB3LYP) =  -839.996781140     A.U. after   11 cycles
 SCF Done:  E(RB3LYP) =  -839.998014436     A.U. after   11 cycles
 SCF Done:  E(RB3LYP) =  -839.998426435     A.U. after   11 cycles
 SCF Done:  E(RB3LYP) =  -839.998677658     A.U. after   11 cycles
 SCF Done:  E(RB3LYP) =  -839.998782191     A.U. after   10 cycles
 SCF Done:  E(RB3LYP) =  -839.998859056     A.U. after    9 cycles
 SCF Done:  E(RB3LYP) =  -839.998916342     A.U. after    9 cycles
 SCF Done:  E(RB3LYP) =  -840.000972807     A.U. after    8 cycles
 SCF Done:  E(RB3LYP) =  -840.000984097     A.U. after    9 cycles
 SCF Done:  E(RB3LYP) =  -840.000987559     A.U. after    8 cycles
 SCF Done:  E(RB3LYP) =  -840.000989010     A.U. after    7 cycles
 SCF Done:  E(RB3LYP) =  -840.000989978     A.U. after    7 cycles
 SCF Done:  E(RB3LYP) =  -840.000990315     A.U. after    7 cycles
 SCF Done:  E(RB3LYP) =  -840.000990444     A.U. after    6 cycles
 SCF Done:  E(RB3LYP) =  -840.000990525     A.U. after    6 cycles
 SCF Done:  E(RB3LYP) =  -840.000990564     A.U. after    6 cycles
 Optimization completed.
    -- Stationary point found.
 Normal termination of Gaussian 09 at Sun Jan 15 13:18:47 2017.

 --------------------------------------------------------------------
 #N Geom=AllCheck Guess=TCheck SCRF=Check GenChk RB3LYP/6-31G(d) Freq
 --------------------------------------------------------------------

 Structure from the checkpoint file:  "/scratch/10462952.yak.local/Gau-1967.chk"
 -----------------------------------------------
 ./boats/6/glo_1w_alpha_ts_boat6_B3LYP_631Gd.out
 -----------------------------------------------
 Charge =  0 Multiplicity = 1

                         Standard orientation:
 ---------------------------------------------------------------------
 Center     Atomic      Atomic             Coordinates (Angstroms)
 Number     Number       Type             X           Y           Z
 ---------------------------------------------------------------------
      1          6           0       -0.401352    0.830745    0.144497
      2          6           0        1.547376   -0.776160    0.075254
      3          6           0        1.113618    0.718207   -0.032074
      4          6           0        0.382774   -1.775701    0.237707
      5          1           0        0.740393   -2.769119   -0.074335
      6          1           0        2.151102   -0.878449    0.979419
      7          1           0       -0.691994    0.499167    1.146949
      8          1           0        1.320937    1.036493   -1.070902
      9          6           0       -0.867437   -1.409297   -0.611976
     10          8           0       -0.971315   -0.016623   -0.863869
     11          6           0       -0.928724    2.229726   -0.091565
     12          1           0       -0.395865    2.924767    0.566950
     13          1           0       -0.749260    2.514890   -1.137844
     14          8           0       -2.336233    2.228528    0.198262
     15          1           0       -2.697166    3.091636   -0.053729
     16          8           0        0.048239   -1.773844    1.614493
     17          1           0       -0.907837   -1.982391    1.628649
     18          8           0        2.431272   -1.144479   -1.004197
     19          1           0        1.981172   -0.946517   -1.841906
     20          8           0        1.778184    1.555892    0.884282
     21          1           0        2.730344    1.517163    0.638268
     22          8           0       -3.955866   -0.055856   -0.338875
     23          1           0       -2.768094   -1.329693   -0.163500
     24          1           0       -3.347723    0.716507   -0.322111
     25          1           0       -4.436096    0.009229    0.500749
     26          8           0        4.253701    0.851378   -0.229021
     27          1           0        4.880747    0.465329    0.400939
     28          1           0        3.819500    0.078484   -0.652971
     29          8           0       -1.985922   -1.894052    0.080994
     30          1           0       -0.804176   -1.860172   -1.612226
 ---------------------------------------------------------------------

 SCF Done:  E(RB3LYP) =  -840.000990564     A.U. after    1 cycles

 The electronic state is 1-A.
 Alpha  occ. eigenvalues --  -19.17596 -19.17546 -19.15919 -19.15193 -19.14864
 Alpha  occ. eigenvalues --  -19.13832 -19.13369 -19.12886 -10.28412 -10.24333
 Alpha  occ. eigenvalues --  -10.24196 -10.23870 -10.23846 -10.23531  -1.07210
 Alpha  occ. eigenvalues --   -1.04420  -1.04068  -1.01472  -1.01056  -1.00694
 Alpha  occ. eigenvalues --   -1.00277  -0.98740  -0.78113  -0.76085  -0.69240
 Alpha  occ. eigenvalues --   -0.64966  -0.62022  -0.57191  -0.55212  -0.53716
 Alpha  occ. eigenvalues --   -0.53237  -0.52888  -0.51488  -0.50851  -0.49435
 Alpha  occ. eigenvalues --   -0.47623  -0.45315  -0.44390  -0.43914  -0.42652
 Alpha  occ. eigenvalues --   -0.41706  -0.40340  -0.39429  -0.39078  -0.38199
 Alpha  occ. eigenvalues --   -0.36295  -0.35729  -0.34770  -0.33976  -0.32005
 Alpha  occ. eigenvalues --   -0.31080  -0.30034  -0.29679  -0.29615  -0.27731
 Alpha  occ. eigenvalues --   -0.27162  -0.26636  -0.24579
 Alpha virt. eigenvalues --    0.04534   0.04664   0.07603   0.08298   0.09266
 Alpha virt. eigenvalues --    0.10797   0.13271   0.13441   0.14121   0.14359
 Alpha virt. eigenvalues --    0.16193   0.17111   0.18174   0.18573   0.18836

 Mulliken charges:
               1
     1  C    0.091228
     2  C    0.080856
     3  C    0.129946
     4  C    0.078979
     5  H    0.135199
     6  H    0.173375
     7  H    0.167406
     8  H    0.101367
     9  C    0.341346
    10  O   -0.521596
    11  C   -0.046806
    12  H    0.169976
    13  H    0.135803
    14  O   -0.639287
    15  H    0.408269
    16  O   -0.650712
    17  H    0.419347
    18  O   -0.646608
    19  H    0.403485
    20  O   -0.672620
    21  H    0.427974
    22  O   -0.812501
    23  H    0.444460
    24  H    0.441840
    25  H    0.394636
    26  O   -0.811670
    27  H    0.398010
    28  H    0.428808
    29  O   -0.691084
    30  H    0.120573
 Sum of Mulliken charges =  -0.00000

 Dipole moment (field-independent basis, Debye):
    X=             -0.4202    Y=              1.9421    Z=             -1.0561  Tot=              2.2503
 Quadrupole moment (field-independent basis, Debye-Ang):
   XX=            -75.5023   YY=            -80.6838   ZZ=            -84.2150
   XY=            -12.6151   XZ=             -4.7555   YZ=              0.4672

  Exact polarizability: 108.356  -0.429  95.586  -1.141   1.891  79.559
 Approx polarizability: 132.920   1.560 125.334  -1.383   2.918 125.319

                      1                      2                      3
                      A                      A                      A
 Frequencies --     42.0973                52.5874                59.0521
 Red. masses --      5.5713                 6.0608                 5.7100
 Frc consts  --      0.0058                 0.0099                 0.0117
 IR Inten    --      1.2342                 2.8669                 6.1546

                      4                      5                      6
                      A                      A                      A
 Frequencies --     92.8678               111.0486               133.7798
 Red. masses --      6.1410                 4.8406                 6.1988
 Frc consts  --      0.0312                 0.0352                 0.0654
 IR Inten    --      1.2111                 0.3912                 1.9418

                      7                      8                      9
                      A                      A                      A
 Frequencies --    172.0811               186.2097               192.2789
 Red. masses --      6.4541                 3.4511                 5.7875
 Frc consts  --      0.1126                 0.0705                 0.1261
 IR Inten    --      6.9164                16.0658                 3.0813

                     10                     11                     12
                      A                      A                      A
 Frequencies --    212.3057               231.8027               240.5825
 Red. masses --      6.4376                 5.0835                 3.2723
 Frc consts  --      0.1710                 0.1609                 0.1116
 IR Inten    --     15.7453                 8.8547                14.1122

                     13                     14                     15
                      A                      A                      A
 Frequencies --    266.7067               283.7918               298.3172
 Red. masses --      1.1824                 1.1637                 2.6640
 Frc consts  --      0.0496                 0.0552                 0.1397
 IR Inten    --    103.9634               110.0589                24.7457

                     16                     17                     18
                      A                      A                      A
 Frequencies --    308.6390               317.6364               351.1252
 Red. masses --      1.3568                 2.5103                 1.4058
 Frc consts  --      0.0762                 0.1492                 0.1021
 IR Inten    --    103.3025                40.3208               122.0767

                     19                     20                     21
                      A                      A                      A
 Frequencies --    375.0785               382.5189               414.9935
 Red. masses --      2.3423                 4.5579                 4.7566
 Frc consts  --      0.1942                 0.3929                 0.4826
 IR Inten    --     39.0494                 4.7058                 3.5412

                     22                     23                     24
                      A                      A                      A
 Frequencies --    426.2923               451.1735               467.5946
 Red. masses --      2.3769                 2.3717                 1.6916
 Frc consts  --      0.2545                 0.2844                 0.2179
 IR Inten    --      8.9023                70.5006                 9.3976

                     25                     26                     27
                      A                      A                      A
 Frequencies --    497.9262               516.9552               567.8922
 Red. masses --      2.0896                 4.9781                 2.0614
 Frc consts  --      0.3052                 0.7838                 0.3917
 IR Inten    --     16.2502                16.0266                56.8768

                     28                     29                     30
                      A                      A                      A
 Frequencies --    586.5422               609.1480               658.3211
 Red. masses --      1.8229                 2.5175                 3.5708
 Frc consts  --      0.3695                 0.5504                 0.9118
 IR Inten    --     56.0212                 0.7871                73.3224

                     31                     32                     33
                      A                      A                      A
 Frequencies --    699.1936               723.2938               801.3683
 Red. masses --      1.1544                 1.0934                 1.2363
 Frc consts  --      0.3325                 0.3370                 0.4678
 IR Inten    --    140.5513                73.2679               184.5325

                     34                     35                     36
                      A                      A                      A
 Frequencies --    806.2456               849.3393               877.9408
 Red. masses --      2.2425                 4.6383                 1.1965
 Frc consts  --      0.8589                 1.9714                 0.5434
 IR Inten    --     64.5757                10.7046               149.3646

                     37                     38                     39
                      A                      A                      A
 Frequencies --    897.8457               950.7464              1020.3539
 Red. masses --      2.1772                 2.9786                 4.6124
 Frc consts  --      1.0341                 1.5863                 2.8293
 IR Inten    --     10.0196               101.8933                80.4388

                     40                     41                     42
                      A                      A                      A
 Frequencies --   1046.6657              1068.7956              1086.8167
 Red. masses --      5.1220                 2.8764                 5.5986
 Frc consts  --      3.3061                 1.9360                 3.8962
 IR Inten    --     40.4066                74.0432               155.0604

                     43                     44                     45
                      A                      A                      A
 Frequencies --   1100.2655              1104.3303              1130.0616
 Red. masses --      2.5989                 3.3202                 4.5770
 Frc consts  --      1.8537                 2.3856                 3.4438
 IR Inten    --      0.3471                39.0110                61.8582

                     46                     47                     48
                      A                      A                      A
 Frequencies --   1134.7877              1148.5233              1149.3150
 Red. masses --      4.3215                 2.3596                 3.6004
 Frc consts  --      3.2788                 1.8338                 2.8021
 IR Inten    --     39.5595                89.7808                66.7901

                     49                     50                     51
                      A                      A                      A
 Frequencies --   1221.5833              1249.2702              1270.8652
 Red. masses --      1.1919                 1.2253                 1.1301
 Frc consts  --      1.0480                 1.1267                 1.0754
 IR Inten    --     21.9886                43.7745                21.3922

                     52                     53                     54
                      A                      A                      A
 Frequencies --   1283.9263              1309.3005              1333.3656
 Red. masses --      1.3370                 1.2634                 1.2081
 Frc consts  --      1.2985                 1.2760                 1.2655
 IR Inten    --     27.1068                 6.1544                30.8724

                     55                     56                     57
                      A                      A                      A
 Frequencies --   1336.8781              1376.7067              1381.4509
 Red. masses --      1.1446                 1.2339                 1.2587
 Frc consts  --      1.2053                 1.3779                 1.4153
 IR Inten    --     58.9437                42.2988                 8.4867

                     58                     59                     60
                      A                      A                      A
 Frequencies --   1395.6192              1410.3290              1417.1475
 Red. masses --      1.2354                 1.2740                 1.2175
 Frc consts  --      1.4178                 1.4930                 1.4406
 IR Inten    --      7.5011                26.5455                13.9162

                     61                     62                     63
                      A                      A                      A
 Frequencies --   1433.2599              1465.9923              1477.7818
 Red. masses --      1.2044                 1.4795                 1.5647
 Frc consts  --      1.4577                 1.8734                 2.0133
 IR Inten    --     32.3310                73.4845                 2.5653

                     64                     65                     66
                      A                      A                      A
 Frequencies --   1513.2479              1521.7683              1536.7237
 Red. masses --      1.3294                 1.3539                 1.0866
 Frc consts  --      1.7936                 1.8472                 1.5118
 IR Inten    --     45.5840                55.2973                 7.0480

                     67                     68                     69
                      A                      A                      A
 Frequencies --   1725.7084              1732.0877              2941.6566
 Red. masses --      1.0794                 1.0753                 1.0827
 Frc consts  --      1.8939                 1.9008                 5.5198
 IR Inten    --     87.7115                59.4238                50.1942

                     70                     71                     72
                      A                      A                      A
 Frequencies --   3006.9753              3032.3384              3034.6512
 Red. masses --      1.0849                 1.0645                 1.0852
 Frc consts  --      5.7794                 5.7670                 5.8880
 IR Inten    --     26.1547                34.0992               114.5384

                     73                     74                     75
                      A                      A                      A
 Frequencies --   3090.5831              3104.9692              3124.0859
 Red. masses --      1.0860                 1.0999                 1.0868
 Frc consts  --      6.1117                 6.2476                 6.2496
 IR Inten    --      5.2574                29.6166                 9.2682

                     76                     77                     78
                      A                      A                      A
 Frequencies --   3309.0631              3490.0699              3552.7369
 Red. masses --      1.0683                 1.0644                 1.0593
 Frc consts  --      6.8918                 7.6386                 7.8778
 IR Inten    --    815.0001               197.8546               801.0261

                     79                     80                     81
                      A                      A                      A
 Frequencies --   3555.2253              3607.3727              3728.2824
 Red. masses --      1.0573                 1.0640                 1.0661
 Frc consts  --      7.8734                 8.1577                 8.7309
 IR Inten    --    180.1891                94.9721                17.6237

                     82                     83                     84
                      A                      A                      A
 Frequencies --   3765.0880              3794.6344              3800.1802
 Red. masses --      1.0665                 1.0699                 1.0704
 Frc consts  --      8.9072                 9.0768                 9.1073
 IR Inten    --     31.6328                63.9879                65.1678

 - Thermochemistry -
 -------------------
 Temperature   298.150 Kelvin.  Pressure   1.00000 Atm.
 Atom     1 has atomic number  6 and mass  12.00000

 Molecular mass:   216.08452 amu.
 Principal axes and moments of inertia in atomic units:
                           1         2         3
     Eigenvalues --  1983.810604033.701065257.23440
           X            0.99996  -0.00847  -0.00293
           Y            0.00847   0.99996   0.00013
           Z            0.00293  -0.00016   1.00000
 This molecule is an asymmetric top.
 Rotational symmetry number  1.
 Warning -- assumption of classical behavior for rotation
           may cause significant error
 Rotational temperatures (Kelvin)      0.04366     0.02147     0.01648
 Rotational constants (GHZ):           0.90973     0.44742     0.34329
 Zero-point vibrational energy     654561.6 (Joules/Mol)
                                  156.44398 (Kcal/Mol)
 Warning -- explicit consideration of  29 degrees of freedom as
           vibrations may cause significant error
 Vibrational temperatures:     60.57    75.66    84.96   133.62   159.77
          (Kelvin)            192.48   247.59   267.91   276.65   305.46
                              333.51   346.14   383.73   408.31   429.21
                              444.06   457.01   505.19   539.65   550.36
                              597.08   613.34   649.14   672.76   716.40
                              743.78   817.07   843.90   876.43   947.18
                             1005.98  1040.66  1152.99  1160.01  1222.01
                             1263.16  1291.80  1367.91  1468.06  1505.92
                             1537.76  1563.68  1583.03  1588.88  1625.90
                             1632.70  1652.47  1653.61  1757.58  1797.42
                             1828.49  1847.28  1883.79  1918.41  1923.47
                             1980.77  1987.60  2007.98  2029.15  2038.96
                             2062.14  2109.23  2126.20  2177.22  2189.48
                             2211.00  2482.91  2492.08  4232.38  4326.36
                             4362.85  4366.18  4446.65  4467.35  4494.86
                             4761.00  5021.43  5111.59  5115.17  5190.20
                             5364.16  5417.12  5459.63  5467.60

 Zero-point correction=                           0.249309 (Hartree/Particle)
 Thermal correction to Energy=                    0.266409
 Thermal correction to Enthalpy=                  0.267353
 Thermal correction to Gibbs Free Energy=         0.205465
 Sum of electronic and zero-point Energies=           -839.751681
 Sum of electronic and thermal Energies=              -839.734581
 Sum of electronic and thermal Enthalpies=            -839.733637
 Sum of electronic and thermal Free Energies=         -839.795525

                     E (Thermal)             CV                S
                      KCal/Mol        Cal/Mol-Kelvin    Cal/Mol-Kelvin
 Total                  167.174             63.720            130.255
 Electronic               0.000              0.000              0.000
 Translational            0.889              2.981             42.015
 Rotational               0.889              2.981             32.109
 Vibrational            165.397             57.758             56.131
 Vibration     1          0.595              1.980              5.158
 Vibration     2          0.596              1.977              4.718
 Vibration     3          0.596              1.974              4.489
 Vibration     4          0.602              1.954              3.599
 Vibration     5          0.607              1.940              3.251
 Vibration     6          0.613              1.920              2.891
 Vibration     7          0.626              1.877              2.413
 Vibration     8          0.632              1.859              2.265
 Vibration     9          0.634              1.851              2.206
 Vibration    10          0.643              1.822              2.024
 Vibration    11          0.653              1.792              1.865
 Vibration    12          0.658              1.778              1.799
 Vibration    13          0.672              1.734              1.617
 Vibration    14          0.682              1.704              1.511
 Vibration    15          0.691              1.677              1.426
 Vibration    16          0.698              1.657              1.370
 Vibration    17          0.704              1.640              1.322
 Vibration    18          0.728              1.573              1.161
 Vibration    19          0.746              1.523              1.059
 Vibration    20          0.752              1.507              1.029
 Vibration    21          0.778              1.438              0.909
 Vibration    22          0.788              1.413              0.871
 Vibration    23          0.810              1.358              0.792
 Vibration    24          0.825              1.322              0.744
 Vibration    25          0.853              1.255              0.663
 Vibration    26          0.872              1.212              0.617
 Vibration    27          0.924              1.101              0.508
 Vibration    28          0.944              1.061              0.473
 Vibration    29          0.968              1.012              0.434

 Normal termination of Gaussian 09 at Sun Jan 15 13:35:22 2017.
