 Gaussian 09, Revision E.01,
 Gaussian 09:  ES64L-G09RevE.01 30-Nov-2015

 -----------------------------------------
 # opt=(MaxCycle=1000) freq B3LYP/6-31G(d)
 -----------------------------------------

 -----------------------------------------------
 ./boats/6/glo_2w_alpha_ts_boat6_B3LYP_631Gd.out
 -----------------------------------------------
 Symbolic Z-matrix:
 Charge =  0 Multiplicity = 1

 SCF Done:  E(RB3LYP) =  -839.990199219     A.U. after   14 cycles
 SCF Done:  E(RB3LYP) =  -839.988958953     A.U. after   13 cycles
 SCF Done:  E(RB3LYP) =  -839.993483583     A.U. after   11 cycles
 SCF Done:  E(RB3LYP) =  -839.996738987     A.U. after   12 cycles
 SCF Done:  E(RB3LYP) =  -840.001285624     A.U. after   12 cycles
 SCF Done:  E(RB3LYP) =  -840.003590219     A.U. after   13 cycles
 SCF Done:  E(RB3LYP) =  -840.004506179     A.U. after   13 cycles
 SCF Done:  E(RB3LYP) =  -840.005180798     A.U. after   13 cycles
 SCF Done:  E(RB3LYP) =  -840.005654727     A.U. after   12 cycles
 SCF Done:  E(RB3LYP) =  -840.005612200     A.U. after   12 cycles
 SCF Done:  E(RB3LYP) =  -840.006414893     A.U. after    9 cycles
 SCF Done:  E(RB3LYP) =  -840.006418514     A.U. after    8 cycles
 SCF Done:  E(RB3LYP) =  -840.006421264     A.U. after    8 cycles
 SCF Done:  E(RB3LYP) =  -840.006422832     A.U. after    8 cycles
 SCF Done:  E(RB3LYP) =  -840.006424398     A.U. after    8 cycles
 SCF Done:  E(RB3LYP) =  -840.006425297     A.U. after    7 cycles
 SCF Done:  E(RB3LYP) =  -840.006425843     A.U. after    7 cycles
 SCF Done:  E(RB3LYP) =  -840.006426093     A.U. after    7 cycles
 SCF Done:  E(RB3LYP) =  -840.006426206     A.U. after    7 cycles
 Optimization completed.
    -- Stationary point found.
 Normal termination of Gaussian 09 at Sun Jan 15 13:13:16 2017.

 --------------------------------------------------------------------
 #N Geom=AllCheck Guess=TCheck SCRF=Check GenChk RB3LYP/6-31G(d) Freq
 --------------------------------------------------------------------

 Structure from the checkpoint file:  "/scratch/10462954.yak.local/Gau-6240.chk"
 -----------------------------------------------
 ./boats/6/glo_2w_alpha_ts_boat6_B3LYP_631Gd.out
 -----------------------------------------------
 Charge =  0 Multiplicity = 1

                         Standard orientation:
 ---------------------------------------------------------------------
 Center     Atomic      Atomic             Coordinates (Angstroms)
 Number     Number       Type             X           Y           Z
 ---------------------------------------------------------------------
      1          6           0        0.079777    1.079020   -0.048152
      2          6           0       -2.172923    0.007488    0.637973
      3          6           0       -1.454398    1.234357    0.023308
      4          6           0       -1.830081   -1.345801   -0.057866
      5          1           0       -2.556291   -2.081428    0.333443
      6          1           0       -3.242236    0.176079    0.470731
      7          1           0        0.321956    0.427485   -0.902953
      8          1           0       -1.691630    2.075603    0.687487
      9          6           0       -0.475182   -1.915131    0.298335
     10          8           0        0.497271    0.473922    1.171427
     11          6           0        0.742153    2.426995   -0.307932
     12          1           0        0.174363    2.949111   -1.088181
     13          1           0        0.720052    3.020642    0.616960
     14          8           0        2.095864    2.209959   -0.745029
     15          1           0        2.519632    3.075509   -0.847001
     16          8           0       -1.950382   -1.231630   -1.467038
     17          1           0       -1.174218   -1.700425   -1.835240
     18          8           0       -1.983424   -0.109055    2.033483
     19          1           0       -1.035842    0.085435    2.178666
     20          8           0       -1.985844    1.565176   -1.249625
     21          1           0       -2.013709    0.725248   -1.746390
     22          8           0        3.119813   -2.253079   -0.396341
     23          1           0        2.158037   -2.436830   -0.411337
     24          1           0        3.238345   -0.664847    0.435628
     25          1           0        3.373661   -2.221338   -1.330677
     26          8           0        0.286612   -2.280222   -0.589993
     27          1           0       -0.245100   -2.061325    1.361128
     28          8           0        3.111178    0.187135    0.918386
     29          1           0        3.095053    0.885721    0.234900
     30          1           0        1.493143    0.326137    1.166669
 ---------------------------------------------------------------------

 SCF Done:  E(RB3LYP) =  -840.006426206     A.U. after    1 cycles

 The electronic state is 1-A.
 Alpha  occ. eigenvalues --  -19.19315 -19.17592 -19.17414 -19.15682 -19.14625
 Alpha  occ. eigenvalues --  -19.14180 -19.13954 -19.13043 -10.30991 -10.26335
 Alpha  occ. eigenvalues --  -10.24862 -10.24258 -10.24185 -10.24036  -1.09222
 Alpha  occ. eigenvalues --   -1.04717  -1.04304  -1.02880  -1.01567  -1.01290
 Alpha  occ. eigenvalues --   -1.00915  -0.98404  -0.78062  -0.75991  -0.70354
 Alpha  occ. eigenvalues --   -0.65198  -0.60683  -0.58564  -0.55192  -0.54274
 Alpha  occ. eigenvalues --   -0.54106  -0.53307  -0.51836  -0.51306  -0.50120
 Alpha  occ. eigenvalues --   -0.46924  -0.46334  -0.45986  -0.45028  -0.43757
 Alpha  occ. eigenvalues --   -0.42007  -0.40857  -0.40242  -0.39791  -0.38548
 Alpha  occ. eigenvalues --   -0.37755  -0.37188  -0.35882  -0.34150  -0.32226
 Alpha  occ. eigenvalues --   -0.31947  -0.31083  -0.29695  -0.29312  -0.29257
 Alpha  occ. eigenvalues --   -0.27753  -0.27050  -0.25506
 Alpha virt. eigenvalues --   -0.05429   0.04632   0.05368   0.07239   0.09829
 Alpha virt. eigenvalues --    0.10678   0.12002   0.12856   0.14688   0.14767
 Alpha virt. eigenvalues --    0.15054   0.15696   0.16492   0.17265   0.18621

 Mulliken charges:
               1
     1  C    0.122938
     2  C    0.095205
     3  C    0.086890
     4  C    0.057775
     5  H    0.170979
     6  H    0.160587
     7  H    0.117746
     8  H    0.148657
     9  C    0.265338
    10  O   -0.715707
    11  C   -0.061204
    12  H    0.160808
    13  H    0.141300
    14  O   -0.640518
    15  H    0.407940
    16  O   -0.654398
    17  H    0.416705
    18  O   -0.651661
    19  H    0.431557
    20  O   -0.650190
    21  H    0.418822
    22  O   -0.805591
    23  H    0.431841
    24  H    0.430418
    25  H    0.397302
    26  O   -0.461836
    27  H    0.168632
    28  O   -0.848277
    29  H    0.413747
    30  H    0.444196
 Sum of Mulliken charges =  -0.00000

 Dipole moment (field-independent basis, Debye):
    X=              1.2370    Y=              0.2050    Z=             -2.7109  Tot=              2.9868
 Quadrupole moment (field-independent basis, Debye-Ang):
   XX=            -92.0444   YY=            -73.2934   ZZ=            -87.0319
   XY=             10.3883   XZ=             -9.4527   YZ=              2.0456

  Exact polarizability: 104.859  -0.946  95.870  -3.849   0.583  86.890
 Approx polarizability: 138.447  -6.840 124.779  -6.751   3.657 137.315

                      1                      2                      3
                      A                      A                      A
 Frequencies --     39.4900                56.7792                68.1564
 Red. masses --      5.4901                 6.2053                 5.9400
 Frc consts  --      0.0050                 0.0118                 0.0163
 IR Inten    --      3.5054                 1.2259                 1.5507

                      4                      5                      6
                      A                      A                      A
 Frequencies --     84.1600                94.0014               114.5860
 Red. masses --      6.2704                 7.4315                 4.9151
 Frc consts  --      0.0262                 0.0387                 0.0380
 IR Inten    --      2.6847                 7.2270                 2.6694

                      7                      8                      9
                      A                      A                      A
 Frequencies --    159.5311               174.2874               197.0538
 Red. masses --      5.3581                 5.7263                 4.6625
 Frc consts  --      0.0803                 0.1025                 0.1067
 IR Inten    --      2.8098                17.0743                 6.2000

                     10                     11                     12
                      A                      A                      A
 Frequencies --    204.2458               219.0403               241.3010
 Red. masses --      5.0685                 5.7713                 4.1363
 Frc consts  --      0.1246                 0.1631                 0.1419
 IR Inten    --      9.0726                 6.0049                 4.8142

                     13                     14                     15
                      A                      A                      A
 Frequencies --    259.9546               271.3734               275.2560
 Red. masses --      5.9837                 1.1893                 3.4493
 Frc consts  --      0.2382                 0.0516                 0.1540
 IR Inten    --     26.8830                79.0806                41.7664

                     16                     17                     18
                      A                      A                      A
 Frequencies --    289.6063               301.0450               342.3286
 Red. masses --      2.5912                 1.6676                 2.8825
 Frc consts  --      0.1280                 0.0890                 0.1990
 IR Inten    --     26.1169                34.0938                43.9657

                     19                     20                     21
                      A                      A                      A
 Frequencies --    354.3653               382.4246               398.2429
 Red. masses --      5.2009                 1.6668                 3.2162
 Frc consts  --      0.3848                 0.1436                 0.3005
 IR Inten    --     12.3584                46.3204                15.7873

                     22                     23                     24
                      A                      A                      A
 Frequencies --    412.1808               459.9079               482.4686
 Red. masses --      3.8850                 2.4004                 1.5116
 Frc consts  --      0.3889                 0.2991                 0.2073
 IR Inten    --     12.8391                10.8021                21.1678

                     25                     26                     27
                      A                      A                      A
 Frequencies --    499.0866               515.3202               563.3966
 Red. masses --      3.9866                 2.8435                 1.0894
 Frc consts  --      0.5851                 0.4449                 0.2037
 IR Inten    --      6.6349                 9.3606                40.0089

                     28                     29                     30
                      A                      A                      A
 Frequencies --    579.3186               600.7072               644.3050
 Red. masses --      3.8301                 1.0818                 1.1101
 Frc consts  --      0.7573                 0.2300                 0.2715
 IR Inten    --     10.3688               181.4834               204.7277

                     31                     32                     33
                      A                      A                      A
 Frequencies --    675.7062               700.9278               721.0062
 Red. masses --      1.2325                 2.2626                 2.1172
 Frc consts  --      0.3315                 0.6549                 0.6485
 IR Inten    --     61.9513                81.1761                24.3390

                     34                     35                     36
                      A                      A                      A
 Frequencies --    737.5466               802.8993               819.9162
 Red. masses --      1.3034                 1.2152                 2.7912
 Frc consts  --      0.4177                 0.4615                 1.1056
 IR Inten    --     51.7691               186.9202               176.7512

                     37                     38                     39
                      A                      A                      A
 Frequencies --    899.6038               905.6457               997.4372
 Red. masses --      2.6058                 2.3678                 1.8427
 Frc consts  --      1.2425                 1.1442                 1.0801
 IR Inten    --      4.0801                36.8092                 6.1812

                     40                     41                     42
                      A                      A                      A
 Frequencies --   1033.8122              1053.7679              1080.3961
 Red. masses --      3.8314                 1.6163                 1.5655
 Frc consts  --      2.4126                 1.0574                 1.0766
 IR Inten    --     65.5237                71.0230                79.1023

                     43                     44                     45
                      A                      A                      A
 Frequencies --   1097.9774              1099.2878              1110.6148
 Red. masses --      4.1071                 3.4933                 3.9789
 Frc consts  --      2.9173                 2.4872                 2.8916
 IR Inten    --    104.2798                64.1965                88.7242

                     46                     47                     48
                      A                      A                      A
 Frequencies --   1135.9561              1139.6734              1158.9471
 Red. masses --      3.0904                 2.9539                 2.8976
 Frc consts  --      2.3496                 2.2605                 2.2931
 IR Inten    --     47.3074                 9.9515                 7.9531

                     49                     50                     51
                      A                      A                      A
 Frequencies --   1216.6921              1250.7486              1279.1470
 Red. masses --      1.1321                 1.2032                 1.1264
 Frc consts  --      0.9874                 1.1090                 1.0859
 IR Inten    --     28.4251                32.0997                 2.3528

                     52                     53                     54
                      A                      A                      A
 Frequencies --   1282.9080              1307.0125              1311.0041
 Red. masses --      1.1879                 1.2489                 1.2582
 Frc consts  --      1.1519                 1.2570                 1.2741
 IR Inten    --     14.2451                 8.3858                23.3368

                     55                     56                     57
                      A                      A                      A
 Frequencies --   1352.2630              1370.1665              1387.8761
 Red. masses --      1.3746                 1.3070                 1.2545
 Frc consts  --      1.4810                 1.4457                 1.4237
 IR Inten    --      2.0875                69.4408                20.5072

                     58                     59                     60
                      A                      A                      A
 Frequencies --   1403.6738              1418.4732              1456.8756
 Red. masses --      1.2371                 1.3600                 1.4340
 Frc consts  --      1.4361                 1.6123                 1.7933
 IR Inten    --     42.2281                19.3034                23.2204

                     61                     62                     63
                      A                      A                      A
 Frequencies --   1460.9481              1474.6237              1482.1653
 Red. masses --      1.3545                 1.2784                 1.2367
 Frc consts  --      1.7033                 1.6379                 1.6007
 IR Inten    --     29.8082                89.9870                46.7576

                     64                     65                     66
                      A                      A                      A
 Frequencies --   1535.3882              1552.3958              1729.4537
 Red. masses --      1.0937                 1.1881                 1.0750
 Frc consts  --      1.5191                 1.6870                 1.8944
 IR Inten    --      4.9552                86.8662                87.9316

                     67                     68                     69
                      A                      A                      A
 Frequencies --   1737.7493              1756.2569              2972.5622
 Red. masses --      1.0788                 8.5262                 1.0810
 Frc consts  --      1.9195                15.4946                 5.6278
 IR Inten    --     14.4255               186.3436                24.5321

                     70                     71                     72
                      A                      A                      A
 Frequencies --   3003.0041              3028.8596              3056.8273
 Red. masses --      1.0814                 1.0590                 1.0852
 Frc consts  --      5.7456                 5.7242                 5.9742
 IR Inten    --     48.9555                22.1624                40.5545

                     73                     74                     75
                      A                      A                      A
 Frequencies --   3076.2926              3083.2502              3086.6708
 Red. masses --      1.0750                 1.0868                 1.1043
 Frc consts  --      5.9940                 6.0872                 6.1987
 IR Inten    --   1159.6860                43.9957                37.0613

                     76                     77                     78
                      A                      A                      A
 Frequencies --   3101.1883              3465.4044              3600.9021
 Red. masses --      1.0906                 1.0593                 1.0608
 Frc consts  --      6.1799                 7.4950                 8.1039
 IR Inten    --     45.9662               429.3203               308.0671

                     79                     80                     81
                      A                      A                      A
 Frequencies --   3608.7025              3612.3231              3647.0114
 Red. masses --      1.0585                 1.0650                 1.0652
 Frc consts  --      8.1215                 8.1877                 8.3479
 IR Inten    --    113.8965               202.7249                96.2190

                     82                     83                     84
                      A                      A                      A
 Frequencies --   3655.7506              3760.0295              3807.6374
 Red. masses --      1.0706                 1.0664                 1.0721
 Frc consts  --      8.4298                 8.8830                 9.1581
 IR Inten    --    381.8762                27.5142                93.6933

 - Thermochemistry -
 -------------------
 Temperature   298.150 Kelvin.  Pressure   1.00000 Atm.
 Atom     1 has atomic number  6 and mass  12.00000

 Molecular mass:   216.08452 amu.
 Principal axes and moments of inertia in atomic units:
                           1         2         3
     Eigenvalues --  2646.405533508.540234685.82054
           X            0.99996   0.00467  -0.00718
           Y           -0.00467   0.99999  -0.00012
           Z            0.00718   0.00015   0.99997
 This molecule is an asymmetric top.
 Rotational symmetry number  1.
 Warning -- assumption of classical behavior for rotation
           may cause significant error
 Rotational temperatures (Kelvin)      0.03273     0.02469     0.01848
 Rotational constants (GHZ):           0.68196     0.51439     0.38515
 Zero-point vibrational energy     650692.4 (Joules/Mol)
                                  155.51922 (Kcal/Mol)
 Warning -- explicit consideration of  29 degrees of freedom as
           vibrations may cause significant error
 Vibrational temperatures:     56.82    81.69    98.06   121.09   135.25
          (Kelvin)            164.86   229.53   250.76   283.52   293.86
                              315.15   347.18   374.02   390.45   396.03
                              416.68   433.14   492.53   509.85   550.22
                              572.98   593.04   661.70   694.16   718.07
                              741.43   810.60   833.51   864.28   927.01
                              972.19  1008.48  1037.37  1061.16  1155.19
                             1179.68  1294.33  1303.02  1435.09  1487.42
                             1516.14  1554.45  1579.74  1581.63  1597.93
                             1634.39  1639.73  1667.46  1750.55  1799.55
                             1840.40  1845.82  1880.50  1886.24  1945.60
                             1971.36  1996.84  2019.57  2040.86  2096.12
                             2101.98  2121.65  2132.50  2209.08  2233.55
                             2488.30  2500.23  2526.86  4276.85  4320.65
                             4357.85  4398.09  4426.09  4436.10  4441.03
                             4461.91  4985.94  5180.89  5192.11  5197.32
                             5247.23  5259.80  5409.84  5478.33

 Zero-point correction=                           0.247836 (Hartree/Particle)
 Thermal correction to Energy=                    0.265326
 Thermal correction to Enthalpy=                  0.266271
 Thermal correction to Gibbs Free Energy=         0.203475
 Sum of electronic and zero-point Energies=           -839.758591
 Sum of electronic and thermal Energies=              -839.741100
 Sum of electronic and thermal Enthalpies=            -839.740156
 Sum of electronic and thermal Free Energies=         -839.802951

                     E (Thermal)             CV                S
                      KCal/Mol        Cal/Mol-Kelvin    Cal/Mol-Kelvin
 Total                  166.495             64.663            132.164
 Electronic               0.000              0.000              0.000
 Translational            0.889              2.981             42.015
 Rotational               0.889              2.981             32.142
 Vibrational            164.717             58.701             58.006
 Vibration     1          0.594              1.981              5.285
 Vibration     2          0.596              1.975              4.566
 Vibration     3          0.598              1.969              4.206
 Vibration     4          0.601              1.960              3.791
 Vibration     5          0.603              1.953              3.575
 Vibration     6          0.608              1.937              3.190
 Vibration     7          0.621              1.892              2.555
 Vibration     8          0.627              1.874              2.389
 Vibration     9          0.636              1.844              2.160
 Vibration    10          0.640              1.834              2.095
 Vibration    11          0.647              1.812              1.967
 Vibration    12          0.658              1.777              1.793
 Vibration    13          0.668              1.746              1.662
 Vibration    14          0.675              1.726              1.587
 Vibration    15          0.677              1.719              1.563
 Vibration    16          0.686              1.693              1.476
 Vibration    17          0.693              1.672              1.411
 Vibration    18          0.721              1.591              1.201
 Vibration    19          0.730              1.566              1.147
 Vibration    20          0.752              1.508              1.030
 Vibration    21          0.765              1.474              0.969
 Vibration    22          0.776              1.444              0.919
 Vibration    23          0.818              1.339              0.766
 Vibration    24          0.839              1.289              0.703
 Vibration    25          0.855              1.252              0.660
 Vibration    26          0.870              1.216              0.621
 Vibration    27          0.919              1.110              0.517
 Vibration    28          0.936              1.076              0.487
 Vibration    29          0.959              1.030              0.448

 Normal termination of Gaussian 09 at Sun Jan 15 13:30:50 2017.
