 Gaussian 09, Revision E.01,
 Gaussian 09:  ES64L-G09RevE.01 30-Nov-2015

 -----------------------------------------
 # opt=(MaxCycle=1000) freq B3LYP/6-31G(d)
 -----------------------------------------

 ------------------------------------------------
 ./boats/6/glo_1w_beta_ts_boat6_B3LYP_631Gd_r.out
 ------------------------------------------------
 Symbolic Z-matrix:
 Charge =  0 Multiplicity = 1

 SCF Done:  E(RB3LYP) =  -839.979023070     A.U. after   14 cycles
 SCF Done:  E(RB3LYP) =  -839.986926664     A.U. after   11 cycles
 SCF Done:  E(RB3LYP) =  -839.992378363     A.U. after   11 cycles
 SCF Done:  E(RB3LYP) =  -839.994722359     A.U. after   11 cycles
 SCF Done:  E(RB3LYP) =  -839.995827408     A.U. after   11 cycles
 SCF Done:  E(RB3LYP) =  -839.996129420     A.U. after   11 cycles
 SCF Done:  E(RB3LYP) =  -839.996355658     A.U. after   11 cycles
 SCF Done:  E(RB3LYP) =  -839.996442380     A.U. after   11 cycles
 SCF Done:  E(RB3LYP) =  -839.996504170     A.U. after   10 cycles
 SCF Done:  E(RB3LYP) =  -839.996537777     A.U. after   10 cycles
 SCF Done:  E(RB3LYP) =  -839.996574569     A.U. after    8 cycles
 SCF Done:  E(RB3LYP) =  -839.996580228     A.U. after    8 cycles
 SCF Done:  E(RB3LYP) =  -839.996584571     A.U. after    7 cycles
 SCF Done:  E(RB3LYP) =  -839.996589885     A.U. after    8 cycles
 SCF Done:  E(RB3LYP) =  -839.996593109     A.U. after    8 cycles
 SCF Done:  E(RB3LYP) =  -839.996593542     A.U. after    7 cycles
 SCF Done:  E(RB3LYP) =  -839.996593634     A.U. after    6 cycles
 SCF Done:  E(RB3LYP) =  -839.996593669     A.U. after    6 cycles
 SCF Done:  E(RB3LYP) =  -839.996593706     A.U. after    6 cycles
 Optimization completed.
    -- Stationary point found.
 Normal termination of Gaussian 09 at Sun Jan 15 12:37:22 2017.

 --------------------------------------------------------------------
 #N Geom=AllCheck Guess=TCheck SCRF=Check GenChk RB3LYP/6-31G(d) Freq
 --------------------------------------------------------------------

 Structure from the checkpoint file:  "/scratch/10462951.yak.local/Gau-9903.chk"
 ------------------------------------------------
 ./boats/6/glo_1w_beta_ts_boat6_B3LYP_631Gd_r.out
 ------------------------------------------------
 Charge =  0 Multiplicity = 1

                         Standard orientation:
 ---------------------------------------------------------------------
 Center     Atomic      Atomic             Coordinates (Angstroms)
 Number     Number       Type             X           Y           Z
 ---------------------------------------------------------------------
      1          6           0       -0.680822    0.827767    0.653183
      2          6           0        1.471519   -0.540537    0.441603
      3          6           0        0.719969    0.755383    0.029944
      4          6           0        0.522664   -1.642786    0.961954
      5          1           0        0.997478   -2.618393    0.786160
      6          1           0        2.182260   -0.277412    1.232703
      7          1           0       -0.600865    0.902665    1.742813
      8          1           0        0.587360    0.706322   -1.062546
      9          6           0       -0.774090   -1.581542    0.162259
     10          1           0       -1.487850   -2.344962    0.491837
     11          8           0       -1.455146   -0.349990    0.341545
     12          6           0       -1.445170    2.030552    0.120625
     13          1           0       -0.889994    2.932010    0.407083
     14          1           0       -1.464413    1.981243   -0.982812
     15          8           0       -2.762853    2.012637    0.655594
     16          1           0       -3.166277    2.873571    0.470149
     17          8           0       -0.406439   -1.779484   -1.190057
     18          8           0        0.174771   -1.468348    2.327174
     19          1           0        0.982686   -1.568219    2.853925
     20          8           0        2.258228   -1.047950   -0.649487
     21          1           0        1.599488   -1.374747   -1.295000
     22          8           0        1.424703    1.923991    0.396515
     23          1           0        2.229509    1.945527   -0.172438
     24          8           0       -2.875229   -0.847627   -2.000881
     25          1           0       -1.218832   -1.598016   -1.722737
     26          1           0       -2.869103   -0.123013   -2.644357
     27          1           0       -2.782341   -0.406729   -1.130708
     28          8           0        3.560881    1.326144   -1.274954
     29          1           0        4.414283    1.329268   -0.815992
     30          1           0        3.250858    0.392877   -1.219057
 ---------------------------------------------------------------------

 SCF Done:  E(RB3LYP) =  -839.996593706     A.U. after    1 cycles

 The electronic state is 1-A.
 Alpha  occ. eigenvalues --  -19.16414 -19.16107 -19.16101 -19.15603 -19.15135
 Alpha  occ. eigenvalues --  -19.14804 -19.14612 -19.12757 -10.28816 -10.24626
 Alpha  occ. eigenvalues --  -10.24337 -10.23613 -10.23542 -10.23183  -1.07378
 Alpha  occ. eigenvalues --   -1.03802  -1.03082  -1.02064  -1.01186  -1.00947
 Alpha  occ. eigenvalues --   -1.00051  -0.99516  -0.77775  -0.76892  -0.69207
 Alpha  occ. eigenvalues --   -0.64326  -0.62613  -0.56350  -0.55847  -0.53917
 Alpha  occ. eigenvalues --   -0.53489  -0.52352  -0.51845  -0.50843  -0.48920
 Alpha  occ. eigenvalues --   -0.47334  -0.46460  -0.45060  -0.43382  -0.41171
 Alpha  occ. eigenvalues --   -0.40928  -0.40353  -0.39474  -0.39221  -0.38418
 Alpha  occ. eigenvalues --   -0.37176  -0.36190  -0.34542  -0.34002  -0.31748
 Alpha  occ. eigenvalues --   -0.31099  -0.30268  -0.29392  -0.29015  -0.28292
 Alpha  occ. eigenvalues --   -0.27077  -0.26687  -0.24676
 Alpha virt. eigenvalues --    0.05092   0.05357   0.06816   0.07532   0.09274
 Alpha virt. eigenvalues --    0.11638   0.12875   0.12948   0.14475   0.14838
 Alpha virt. eigenvalues --    0.16073   0.16700   0.17101   0.18409   0.19508

 Mulliken charges:
               1
     1  C    0.141697
     2  C    0.079955
     3  C    0.111537
     4  C    0.069475
     5  H    0.147570
     6  H    0.139108
     7  H    0.164429
     8  H    0.117084
     9  C    0.348735
    10  H    0.150326
    11  O   -0.532486
    12  C   -0.052536
    13  H    0.161466
    14  H    0.098759
    15  O   -0.618075
    16  H    0.395332
    17  O   -0.685044
    18  O   -0.618307
    19  H    0.399769
    20  O   -0.665978
    21  H    0.429357
    22  O   -0.682111
    23  H    0.426736
    24  O   -0.802361
    25  H    0.431094
    26  H    0.397886
    27  H    0.435151
    28  O   -0.813313
    29  H    0.394523
    30  H    0.430222
 Sum of Mulliken charges =  -0.00000

 Dipole moment (field-independent basis, Debye):
    X=              1.5888    Y=              0.8053    Z=             -0.3714  Tot=              1.8196
 Quadrupole moment (field-independent basis, Debye-Ang):
   XX=            -77.9771   YY=            -81.2562   ZZ=            -81.0876
   XY=            -11.4619   XZ=             10.4645   YZ=             -4.9344

  Exact polarizability: 102.135  -2.300  94.927   1.831  -0.474  86.660
 Approx polarizability: 131.008  -0.287 125.965  -0.139   3.717 127.303

                      1                      2                      3
                      A                      A                      A
 Frequencies --     39.6564                46.6973                58.4333
 Red. masses --      5.4870                 6.0964                 5.6620
 Frc consts  --      0.0051                 0.0078                 0.0114
 IR Inten    --      1.7944                 0.6494                 2.8776

                      4                      5                      6
                      A                      A                      A
 Frequencies --     85.7338               108.6405               138.5692
 Red. masses --      5.3973                 3.5651                 4.4250
 Frc consts  --      0.0234                 0.0248                 0.0501
 IR Inten    --      0.8441                 6.9196                 5.5876

                      7                      8                      9
                      A                      A                      A
 Frequencies --    150.3256               180.2576               190.5172
 Red. masses --      6.9140                 5.1263                 7.1934
 Frc consts  --      0.0921                 0.0981                 0.1538
 IR Inten    --     21.4382                 3.5528                 5.3790

                     10                     11                     12
                      A                      A                      A
 Frequencies --    192.9842               221.6786               252.8687
 Red. masses --      5.2424                 4.4262                 1.2312
 Frc consts  --      0.1150                 0.1282                 0.0464
 IR Inten    --      0.7909                16.4393                46.9637

                     13                     14                     15
                      A                      A                      A
 Frequencies --    255.8187               271.0520               290.9447
 Red. masses --      2.4095                 1.3239                 2.9093
 Frc consts  --      0.0929                 0.0573                 0.1451
 IR Inten    --     52.5089               145.0116                31.6952

                     16                     17                     18
                      A                      A                      A
 Frequencies --    293.3784               294.2607               328.1919
 Red. masses --      1.2342                 1.3363                 3.6641
 Frc consts  --      0.0626                 0.0682                 0.2325
 IR Inten    --     78.3891               134.8060                24.1368

                     19                     20                     21
                      A                      A                      A
 Frequencies --    354.6410               382.5306               396.4916
 Red. masses --      5.6155                 1.8489                 1.5542
 Frc consts  --      0.4161                 0.1594                 0.1440
 IR Inten    --      4.7265                37.5084                63.0108

                     22                     23                     24
                      A                      A                      A
 Frequencies --    403.4870               443.7398               463.2259
 Red. masses --      1.2824                 4.8987                 4.3306
 Frc consts  --      0.1230                 0.5683                 0.5475
 IR Inten    --     75.7763                 7.3538                11.0024

                     25                     26                     27
                      A                      A                      A
 Frequencies --    476.7290               519.6382               534.0187
 Red. masses --      4.1635                 3.9916                 4.6197
 Frc consts  --      0.5575                 0.6350                 0.7762
 IR Inten    --      7.3579                 5.3170                 7.8401

                     28                     29                     30
                      A                      A                      A
 Frequencies --    588.0046               612.1122               618.7402
 Red. masses --      4.7243                 3.7822                 1.1863
 Frc consts  --      0.9624                 0.8349                 0.2676
 IR Inten    --     15.7106                 7.0019               213.5342

                     31                     32                     33
                      A                      A                      A
 Frequencies --    661.9551               727.5887               793.0634
 Red. masses --      1.1415                 1.0474                 1.1889
 Frc consts  --      0.2947                 0.3267                 0.4406
 IR Inten    --     89.6721                78.6516               190.7886

                     34                     35                     36
                      A                      A                      A
 Frequencies --    815.4989               848.7619               855.4115
 Red. masses --      3.5262                 1.1029                 2.5357
 Frc consts  --      1.3817                 0.4681                 1.0932
 IR Inten    --     54.3379               205.5885                14.2468

                     37                     38                     39
                      A                      A                      A
 Frequencies --    927.8604               969.6163              1020.3752
 Red. masses --      2.6036                 2.7308                 4.4267
 Frc consts  --      1.3207                 1.5127                 2.7155
 IR Inten    --     50.9544                90.5525                 3.9345

                     40                     41                     42
                      A                      A                      A
 Frequencies --   1052.8915              1061.1348              1082.8726
 Red. masses --      2.7615                 5.2985                 3.6846
 Frc consts  --      1.8037                 3.5152                 2.5456
 IR Inten    --     43.2828               260.6764                28.8037

                     43                     44                     45
                      A                      A                      A
 Frequencies --   1100.9352              1113.9288              1118.7226
 Red. masses --      3.6043                 3.7803                 2.9282
 Frc consts  --      2.5739                 2.7637                 2.1592
 IR Inten    --     74.9044                62.8244                27.2592

                     46                     47                     48
                      A                      A                      A
 Frequencies --   1129.7155              1135.7476              1150.7652
 Red. masses --      4.6169                 3.9337                 2.5346
 Frc consts  --      3.4717                 2.9896                 1.9776
 IR Inten    --     82.8663                67.5687                 9.2760

                     49                     50                     51
                      A                      A                      A
 Frequencies --   1241.6454              1245.6610              1255.8280
 Red. masses --      1.1074                 1.1625                 1.1896
 Frc consts  --      1.0059                 1.0628                 1.1054
 IR Inten    --      9.5246                45.9873                12.8062

                     52                     53                     54
                      A                      A                      A
 Frequencies --   1267.2932              1286.8753              1316.9017
 Red. masses --      1.3368                 1.2748                 1.2121
 Frc consts  --      1.2649                 1.2438                 1.2385
 IR Inten    --     34.5789                55.2485                 6.5956

                     55                     56                     57
                      A                      A                      A
 Frequencies --   1336.3628              1362.2549              1376.6810
 Red. masses --      1.2178                 1.2431                 1.2733
 Frc consts  --      1.2814                 1.3591                 1.4218
 IR Inten    --      5.7177                31.0041                 1.2125

                     58                     59                     60
                      A                      A                      A
 Frequencies --   1396.8817              1406.4640              1420.9358
 Red. masses --      1.2567                 1.1777                 1.3585
 Frc consts  --      1.4447                 1.3726                 1.6161
 IR Inten    --     14.5821                 1.5703                 1.8414

                     61                     62                     63
                      A                      A                      A
 Frequencies --   1448.7563              1466.1993              1482.1597
 Red. masses --      1.4132                 1.2496                 1.5296
 Frc consts  --      1.7476                 1.5827                 1.9798
 IR Inten    --      5.6806                98.4658                10.4724

                     64                     65                     66
                      A                      A                      A
 Frequencies --   1527.2399              1540.4920              1543.1660
 Red. masses --      1.3108                 1.3290                 1.1859
 Frc consts  --      1.8013                 1.8582                 1.6639
 IR Inten    --     44.4133                66.2755                 4.7688

                     67                     68                     69
                      A                      A                      A
 Frequencies --   1730.4144              1733.0534              2967.1345
 Red. masses --      1.0755                 1.0744                 1.0709
 Frc consts  --      1.8974                 1.9013                 5.5548
 IR Inten    --     52.4029                63.4363                53.8799

                     70                     71                     72
                      A                      A                      A
 Frequencies --   2997.9781              3036.5523              3077.1147
 Red. masses --      1.0824                 1.0851                 1.0879
 Frc consts  --      5.7319                 5.8952                 6.0690
 IR Inten    --     40.3449                36.3860                 4.2082

                     73                     74                     75
                      A                      A                      A
 Frequencies --   3078.6874              3082.2738              3094.0469
 Red. masses --      1.0864                 1.0883                 1.0883
 Frc consts  --      6.0670                 6.0915                 6.1385
 IR Inten    --     62.5127                29.6139                46.6366

                     76                     77                     78
                      A                      A                      A
 Frequencies --   3430.8582              3447.9051              3518.5558
 Red. masses --      1.0666                 1.0648                 1.0612
 Frc consts  --      7.3970                 7.4581                 7.7406
 IR Inten    --    456.2078               197.6076               758.8855

                     79                     80                     81
                      A                      A                      A
 Frequencies --   3605.4379              3627.3368              3749.8855
 Red. masses --      1.0550                 1.0652                 1.0664
 Frc consts  --      8.0805                 8.2577                 8.8353
 IR Inten    --    265.7571                80.7028                20.8186

                     82                     83                     84
                      A                      A                      A
 Frequencies --   3758.3714              3798.8098              3805.3647
 Red. masses --      1.0666                 1.0693                 1.0726
 Frc consts  --      8.8766                 9.0915                 9.1508
 IR Inten    --     17.3930                59.6231                60.9496

 - Thermochemistry -
 -------------------
 Temperature   298.150 Kelvin.  Pressure   1.00000 Atm.
 Atom     1 has atomic number  6 and mass  12.00000

 Molecular mass:   216.08452 amu.
 Principal axes and moments of inertia in atomic units:
                           1         2         3
     Eigenvalues --  2549.730433668.927214307.52371
           X            0.99987  -0.00994   0.01271
           Y            0.01017   0.99978  -0.01810
           Z           -0.01252   0.01823   0.99976
 This molecule is an asymmetric top.
 Rotational symmetry number  1.
 Warning -- assumption of classical behavior for rotation
           may cause significant error
 Rotational temperatures (Kelvin)      0.03397     0.02361     0.02011
 Rotational constants (GHZ):           0.70782     0.49190     0.41897
 Zero-point vibrational energy     653291.4 (Joules/Mol)
                                  156.14039 (Kcal/Mol)
 Warning -- explicit consideration of  30 degrees of freedom as
           vibrations may cause significant error
 Vibrational temperatures:     57.06    67.19    84.07   123.35   156.31
          (Kelvin)            199.37   216.28   259.35   274.11   277.66
                              318.95   363.82   368.07   389.98   418.60
                              422.11   423.38   472.19   510.25   550.38
                              570.46   580.53   638.44   666.48   685.91
                              747.64   768.33   846.01   880.69   890.23
                              952.40  1046.84  1141.04  1173.32  1221.18
                             1230.74  1334.98  1395.06  1468.09  1514.87
                             1526.73  1558.01  1584.00  1602.69  1609.59
                             1625.41  1634.09  1655.69  1786.45  1792.23
                             1806.85  1823.35  1851.52  1894.73  1922.73
                             1959.98  1980.73  2009.80  2023.59  2044.41
                             2084.43  2109.53  2132.49  2197.35  2216.42
                             2220.27  2489.68  2493.47  4269.04  4313.42
                             4368.92  4427.28  4429.54  4434.70  4451.64
                             4936.23  4960.76  5062.41  5187.41  5218.92
                             5395.24  5407.45  5465.63  5475.06

 Zero-point correction=                           0.248826 (Hartree/Particle)
 Thermal correction to Energy=                    0.266284
 Thermal correction to Enthalpy=                  0.267228
 Thermal correction to Gibbs Free Energy=         0.204410
 Sum of electronic and zero-point Energies=           -839.747768
 Sum of electronic and thermal Energies=              -839.730310
 Sum of electronic and thermal Enthalpies=            -839.729365
 Sum of electronic and thermal Free Energies=         -839.792183

                     E (Thermal)             CV                S
                      KCal/Mol        Cal/Mol-Kelvin    Cal/Mol-Kelvin
 Total                  167.096             64.373            132.212
 Electronic               0.000              0.000              0.000
 Translational            0.889              2.981             42.015
 Rotational               0.889              2.981             32.066
 Vibrational            165.318             58.412             58.131
 Vibration     1          0.594              1.981              5.276
 Vibration     2          0.595              1.979              4.953
 Vibration     3          0.596              1.974              4.509
 Vibration     4          0.601              1.959              3.755
 Vibration     5          0.606              1.942              3.293
 Vibration     6          0.614              1.915              2.824
 Vibration     7          0.618              1.902              2.668
 Vibration     8          0.629              1.867              2.326
 Vibration     9          0.634              1.853              2.223
 Vibration    10          0.635              1.850              2.199
 Vibration    11          0.648              1.808              1.945
 Vibration    12          0.664              1.758              1.710
 Vibration    13          0.666              1.753              1.690
 Vibration    14          0.675              1.727              1.589
 Vibration    15          0.687              1.691              1.468
 Vibration    16          0.688              1.686              1.454
 Vibration    17          0.689              1.684              1.449
 Vibration    18          0.711              1.619              1.269
 Vibration    19          0.730              1.566              1.146
 Vibration    20          0.752              1.507              1.029
 Vibration    21          0.763              1.478              0.976
 Vibration    22          0.769              1.463              0.950
 Vibration    23          0.803              1.375              0.815
 Vibration    24          0.821              1.332              0.757
 Vibration    25          0.833              1.302              0.719
 Vibration    26          0.875              1.207              0.611
 Vibration    27          0.889              1.175              0.578
 Vibration    28          0.945              1.057              0.471
 Vibration    29          0.971              1.006              0.429
 Vibration    30          0.979              0.992              0.419

 Normal termination of Gaussian 09 at Sun Jan 15 12:56:25 2017.
