 Gaussian 09, Revision E.01,
 Gaussian 09:  ES64L-G09RevE.01 30-Nov-2015

 -----------------------------------------
 # opt=(MaxCycle=1000) freq B3LYP/6-31G(d)
 -----------------------------------------

 -------------------------------------------------
 ./boats/6/glo_1w_alpha_ts_boat6_B3LYP_631Gd_r.out
 -------------------------------------------------
 Symbolic Z-matrix:
 Charge =  0 Multiplicity = 1

 SCF Done:  E(RB3LYP) =  -839.969171000     A.U. after   14 cycles
 SCF Done:  E(RB3LYP) =  -839.949780017     A.U. after   16 cycles
 SCF Done:  E(RB3LYP) =  -839.971698077     A.U. after   12 cycles
 SCF Done:  E(RB3LYP) =  -839.973404203     A.U. after   12 cycles
 SCF Done:  E(RB3LYP) =  -839.977798188     A.U. after   13 cycles
 SCF Done:  E(RB3LYP) =  -839.977817366     A.U. after   15 cycles
 SCF Done:  E(RB3LYP) =  -839.982084786     A.U. after   12 cycles
 SCF Done:  E(RB3LYP) =  -839.977777024     A.U. after   14 cycles
 SCF Done:  E(RB3LYP) =  -839.983571405     A.U. after   11 cycles
 SCF Done:  E(RB3LYP) =  -839.984272779     A.U. after   12 cycles
 SCF Done:  E(RB3LYP) =  -839.988622528     A.U. after    9 cycles
 SCF Done:  E(RB3LYP) =  -839.988630167     A.U. after   10 cycles
 SCF Done:  E(RB3LYP) =  -839.988636157     A.U. after   10 cycles
 SCF Done:  E(RB3LYP) =  -839.988640340     A.U. after    8 cycles
 SCF Done:  E(RB3LYP) =  -839.988643135     A.U. after    8 cycles
 SCF Done:  E(RB3LYP) =  -839.988644590     A.U. after    8 cycles
 SCF Done:  E(RB3LYP) =  -839.988644799     A.U. after    7 cycles
 SCF Done:  E(RB3LYP) =  -839.988644911     A.U. after    7 cycles
 SCF Done:  E(RB3LYP) =  -839.988644981     A.U. after    7 cycles
 Optimization completed.
    -- Stationary point found.
 Normal termination of Gaussian 09 at Sun Jan 15 14:13:15 2017.

 --------------------------------------------------------------------
 #N Geom=AllCheck Guess=TCheck SCRF=Check GenChk RB3LYP/6-31G(d) Freq
 --------------------------------------------------------------------

 Structure from the checkpoint file:  "/scratch/10462953.yak.local/Gau-22847.chk"
 -------------------------------------------------
 ./boats/6/glo_1w_alpha_ts_boat6_B3LYP_631Gd_r.out
 -------------------------------------------------
 Charge =  0 Multiplicity = 1

                         Standard orientation:
 ---------------------------------------------------------------------
 Center     Atomic      Atomic             Coordinates (Angstroms)
 Number     Number       Type             X           Y           Z
 ---------------------------------------------------------------------
      1          6           0       -0.615773    0.842901    0.140819
      2          6           0        1.558265   -0.499637   -0.030764
      3          6           0        0.889534    0.834935    0.406151
      4          6           0        0.854435   -1.834338    0.363723
      5          1           0        1.553504   -2.627907    0.037578
      6          1           0        2.542338   -0.519314    0.446241
      7          1           0       -1.085087    0.115170    0.816535
      8          1           0        1.359707    1.607340   -0.220804
      9          6           0       -0.424968   -2.120595   -0.398586
     10          8           0       -0.766253    0.437222   -1.222047
     11          6           0       -1.278350    2.185968    0.409911
     12          1           0       -0.948683    2.565226    1.384288
     13          1           0       -0.992055    2.897919   -0.376315
     14          8           0       -2.700546    1.967067    0.408730
     15          1           0       -3.146358    2.826152    0.435009
     16          8           0        0.638452   -1.907102    1.747569
     17          1           0       -0.306637   -2.125281    1.861160
     18          8           0        1.805507   -0.493696   -1.441300
     19          1           0        0.976756   -0.156970   -1.839040
     20          8           0        1.085861    1.130410    1.778000
     21          1           0        2.031182    1.312933    1.898047
     22          8           0       -3.325133   -0.367831   -1.075358
     23          1           0       -3.122785   -1.163307   -0.549968
     24          1           0       -1.714322    0.171017   -1.365336
     25          1           0       -3.439625    0.356387   -0.427178
     26          8           0        3.829734    1.397906   -0.840115
     27          1           0        4.728980    1.081912   -1.010968
     28          1           0        3.255993    0.782061   -1.338150
     29          8           0       -1.472061   -2.337707    0.194055
     30          1           0       -0.356253   -2.188890   -1.494886
 ---------------------------------------------------------------------

 SCF Done:  E(RB3LYP) =  -839.988644981     A.U. after    1 cycles

 The electronic state is 1-A.
 Alpha  occ. eigenvalues --  -19.17766 -19.17242 -19.16106 -19.15364 -19.15183
 Alpha  occ. eigenvalues --  -19.14968 -19.14779 -19.12558 -10.29748 -10.25282
 Alpha  occ. eigenvalues --  -10.24888 -10.24345 -10.24266 -10.24066  -1.07710
 Alpha  occ. eigenvalues --   -1.04781  -1.03819  -1.02286  -1.02257  -1.01727
 Alpha  occ. eigenvalues --   -1.00399  -0.98356  -0.78053  -0.75569  -0.70307
 Alpha  occ. eigenvalues --   -0.65249  -0.59772  -0.57639  -0.55210  -0.53976
 Alpha  occ. eigenvalues --   -0.53354  -0.52948  -0.52147  -0.50612  -0.48933
 Alpha  occ. eigenvalues --   -0.48211  -0.46488  -0.45585  -0.44263  -0.43161
 Alpha  occ. eigenvalues --   -0.42272  -0.40238  -0.39854  -0.38281  -0.37612
 Alpha  occ. eigenvalues --   -0.36731  -0.36321  -0.35856  -0.35667  -0.32864
 Alpha  occ. eigenvalues --   -0.30845  -0.30056  -0.29795  -0.28533  -0.28411
 Alpha  occ. eigenvalues --   -0.28249  -0.27659  -0.25176
 Alpha virt. eigenvalues --   -0.04473   0.04649   0.06701   0.07255   0.08310
 Alpha virt. eigenvalues --    0.10844   0.11800   0.12572   0.13243   0.13914
 Alpha virt. eigenvalues --    0.15115   0.15854   0.16602   0.17748   0.19707

 Mulliken charges:
               1
     1  C    0.097499
     2  C    0.087876
     3  C    0.101421
     4  C    0.080561
     5  H    0.154646
     6  H    0.151442
     7  H    0.140554
     8  H    0.151834
     9  C    0.241178
    10  O   -0.705670
    11  C   -0.045051
    12  H    0.161997
    13  H    0.138813
    14  O   -0.646362
    15  H    0.408947
    16  O   -0.629833
    17  H    0.410642
    18  O   -0.667625
    19  H    0.433780
    20  O   -0.626731
    21  H    0.408312
    22  O   -0.819712
    23  H    0.421082
    24  H    0.443474
    25  H    0.428645
    26  O   -0.822412
    27  H    0.383308
    28  H    0.416643
    29  O   -0.448355
    30  H    0.149097
 Sum of Mulliken charges =  -0.00000

 Dipole moment (field-independent basis, Debye):
    X=              0.0571    Y=              1.1353    Z=             -0.2577  Tot=              1.1656
 Quadrupole moment (field-independent basis, Debye-Ang):
   XX=            -77.3843   YY=            -76.8270   ZZ=            -89.2119
   XY=            -10.1066   XZ=             -5.6672   YZ=              4.2979

  Exact polarizability: 110.654   1.555  92.248  -0.570   2.620  83.478
 Approx polarizability: 149.638   6.604 119.798  -4.790   1.189 129.982

                      1                      2                      3
                      A                      A                      A
 Frequencies --     27.3474                49.3819                55.5682
 Red. masses --      5.6097                 5.4527                 6.6228
 Frc consts  --      0.0025                 0.0078                 0.0120
 IR Inten    --      3.8264                 4.8349                 6.2464

                      4                      5                      6
                      A                      A                      A
 Frequencies --     84.2063                96.6242               116.2427
 Red. masses --      6.5163                 4.5179                 5.7669
 Frc consts  --      0.0272                 0.0249                 0.0459
 IR Inten    --      0.1492                 0.7447                 7.1296

                      7                      8                      9
                      A                      A                      A
 Frequencies --    117.5528               144.2494               156.5938
 Red. masses --      5.9668                 1.6542                 3.0483
 Frc consts  --      0.0486                 0.0203                 0.0440
 IR Inten    --      0.6928                81.3501                21.9905

                     10                     11                     12
                      A                      A                      A
 Frequencies --    159.7168               167.9197               189.3443
 Red. masses --      3.7034                 4.6785                 4.8193
 Frc consts  --      0.0557                 0.0777                 0.1018
 IR Inten    --      1.7273                19.2419                 4.0897

                     13                     14                     15
                      A                      A                      A
 Frequencies --    217.1210               227.0747               244.7034
 Red. masses --      2.5332                 1.8117                 3.5314
 Frc consts  --      0.0704                 0.0550                 0.1246
 IR Inten    --     45.9947                52.1580                34.6484

                     16                     17                     18
                      A                      A                      A
 Frequencies --    273.7042               297.2822               315.0900
 Red. masses --      4.4016                 2.9931                 1.3599
 Frc consts  --      0.1943                 0.1559                 0.0795
 IR Inten    --     10.6281                12.2869                48.9461

                     19                     20                     21
                      A                      A                      A
 Frequencies --    325.9416               352.4878               367.4046
 Red. masses --      5.3359                 2.0418                 3.0679
 Frc consts  --      0.3340                 0.1495                 0.2440
 IR Inten    --     20.0616                53.6412                60.1066

                     22                     23                     24
                      A                      A                      A
 Frequencies --    376.0162               389.6913               417.5537
 Red. masses --      1.8107                 1.8183                 1.2154
 Frc consts  --      0.1508                 0.1627                 0.1248
 IR Inten    --    128.8375                72.2901                48.6773

                     25                     26                     27
                      A                      A                      A
 Frequencies --    434.8406               474.5567               494.8148
 Red. masses --      1.6249                 3.8093                 4.0192
 Frc consts  --      0.1810                 0.5054                 0.5798
 IR Inten    --     47.5041                 7.9175                16.9417

                     28                     29                     30
                      A                      A                      A
 Frequencies --    508.5568               545.5120               583.5887
 Red. masses --      3.1683                 1.0672                 4.4332
 Frc consts  --      0.4828                 0.1871                 0.8896
 IR Inten    --     27.7236               182.7696                 8.0027

                     31                     32                     33
                      A                      A                      A
 Frequencies --    638.0205               691.5827               711.2016
 Red. masses --      1.2779                 1.6983                 1.3272
 Frc consts  --      0.3065                 0.4786                 0.3955
 IR Inten    --     84.6998                82.2215               255.2744

                     34                     35                     36
                      A                      A                      A
 Frequencies --    733.9341               761.0535               823.0795
 Red. masses --      3.1377                 1.0820                 3.8886
 Frc consts  --      0.9958                 0.3692                 1.5521
 IR Inten    --      1.1280               185.2207                44.3220

                     37                     38                     39
                      A                      A                      A
 Frequencies --    906.7626               914.5385               967.7225
 Red. masses --      2.5903                 2.5499                 1.0867
 Frc consts  --      1.2548                 1.2566                 0.5996
 IR Inten    --     43.5049                 2.1769               113.7329

                     40                     41                     42
                      A                      A                      A
 Frequencies --    998.9560              1039.4199              1064.4786
 Red. masses --      1.8751                 4.3667                 3.7026
 Frc consts  --      1.1025                 2.7796                 2.4719
 IR Inten    --      7.6592                62.2548                86.0479

                     43                     44                     45
                      A                      A                      A
 Frequencies --   1075.0676              1105.5750              1111.2670
 Red. masses --      2.6937                 3.3034                 4.0213
 Frc consts  --      1.8343                 2.3790                 2.9259
 IR Inten    --     42.3604                49.5114               120.4116

                     46                     47                     48
                      A                      A                      A
 Frequencies --   1133.2305              1136.0543              1170.7375
 Red. masses --      2.1254                 3.1937                 3.2028
 Frc consts  --      1.6081                 2.4285                 2.5864
 IR Inten    --     28.7845                 4.8984                30.2147

                     49                     50                     51
                      A                      A                      A
 Frequencies --   1216.8707              1253.3114              1269.1626
 Red. masses --      1.1040                 1.2700                 1.0850
 Frc consts  --      0.9632                 1.1753                 1.0297
 IR Inten    --     26.7028                 0.8556                18.4610

                     52                     53                     54
                      A                      A                      A
 Frequencies --   1272.9834              1292.0062              1323.0452
 Red. masses --      1.2145                 1.1994                 1.4180
 Frc consts  --      1.1595                 1.1797                 1.4624
 IR Inten    --     98.2997                14.8777                37.9802

                     55                     56                     57
                      A                      A                      A
 Frequencies --   1354.4240              1365.4871              1397.1962
 Red. masses --      1.3091                 1.2222                 1.2066
 Frc consts  --      1.4149                 1.3427                 1.3878
 IR Inten    --      7.9238                26.1570                52.1326

                     58                     59                     60
                      A                      A                      A
 Frequencies --   1411.0579              1421.2799              1449.5740
 Red. masses --      1.2142                 1.2759                 1.3804
 Frc consts  --      1.4244                 1.5185                 1.7090
 IR Inten    --     34.2040                 1.8775                18.7729

                     61                     62                     63
                      A                      A                      A
 Frequencies --   1458.9708              1469.3450              1485.6918
 Red. masses --      1.3331                 1.4613                 1.3234
 Frc consts  --      1.6718                 1.8588                 1.7210
 IR Inten    --     21.5794                 1.7953                94.6646

                     64                     65                     66
                      A                      A                      A
 Frequencies --   1530.3879              1539.4266              1710.8664
 Red. masses --      1.3423                 1.0969                 1.0767
 Frc consts  --      1.8522                 1.5315                 1.8569
 IR Inten    --     28.0635                13.5478                56.3861

                     67                     68                     69
                      A                      A                      A
 Frequencies --   1734.4045              1769.0321              2951.4529
 Red. masses --      1.0761                 9.0875                 1.0807
 Frc consts  --      1.9072                16.7558                 5.5466
 IR Inten    --     73.3341               140.8748                31.1188

                     70                     71                     72
                      A                      A                      A
 Frequencies --   3021.1619              3035.3808              3054.8783
 Red. masses --      1.0833                 1.0612                 1.0851
 Frc consts  --      5.8258                 5.7606                 5.9663
 IR Inten    --     13.8371                25.5647                17.8912

                     73                     74                     75
                      A                      A                      A
 Frequencies --   3056.8492              3096.9916              3098.5787
 Red. masses --      1.0853                 1.1047                 1.0879
 Frc consts  --      5.9752                 6.2425                 6.1539
 IR Inten    --     53.9536                24.3012                33.7983

                     76                     77                     78
                      A                      A                      A
 Frequencies --   3289.9172              3598.7595              3616.1592
 Red. masses --      1.0690                 1.0609                 1.0492
 Frc consts  --      6.8171                 8.0953                 8.0836
 IR Inten    --    730.3995               261.9670               171.6704

                     79                     80                     81
                      A                      A                      A
 Frequencies --   3619.8884              3635.0810              3733.3862
 Red. masses --      1.0592                 1.0649                 1.0790
 Frc consts  --      8.1771                 8.2907                 8.8605
 IR Inten    --     87.8747                54.0609               169.0957

                     82                     83                     84
                      A                      A                      A
 Frequencies --   3746.4800              3774.0525              3807.9530
 Red. masses --      1.0664                 1.0666                 1.0731
 Frc consts  --      8.8186                 8.9510                 9.1678
 IR Inten    --     32.8128                31.7062                55.3447

 - Thermochemistry -
 -------------------
 Temperature   298.150 Kelvin.  Pressure   1.00000 Atm.
 Atom     1 has atomic number  6 and mass  12.00000

 Molecular mass:   216.08452 amu.
 Principal axes and moments of inertia in atomic units:
                           1         2         3
     Eigenvalues --  2519.808993674.688394634.51628
           X            0.99991  -0.01143  -0.00661
           Y            0.01151   0.99986   0.01213
           Z            0.00647  -0.01221   0.99990
 This molecule is an asymmetric top.
 Rotational symmetry number  1.
 Warning -- assumption of classical behavior for rotation
           may cause significant error
 Rotational temperatures (Kelvin)      0.03437     0.02357     0.01869
 Rotational constants (GHZ):           0.71622     0.49113     0.38941
 Zero-point vibrational energy     646311.6 (Joules/Mol)
                                  154.47218 (Kcal/Mol)
 Warning -- explicit consideration of  30 degrees of freedom as
           vibrations may cause significant error
 Vibrational temperatures:     39.35    71.05    79.95   121.15   139.02
          (Kelvin)            167.25   169.13   207.54   225.30   229.80
                              241.60   272.42   312.39   326.71   352.07
                              393.80   427.72   453.34   468.96   507.15
                              528.61   541.00   560.68   600.77   625.64
                              682.78   711.93   731.70   784.87   839.65
                              917.97   995.03  1023.26  1055.97  1094.98
                             1184.23  1304.63  1315.82  1392.34  1437.27
                             1495.49  1531.55  1546.78  1590.67  1598.86
                             1630.46  1634.53  1684.43  1750.80  1803.23
                             1826.04  1831.54  1858.91  1903.56  1948.71
                             1964.63  2010.25  2030.19  2044.90  2085.61
                             2099.13  2114.06  2137.58  2201.88  2214.89
                             2461.55  2495.42  2545.24  4246.48  4346.77
                             4367.23  4395.28  4398.12  4455.87  4458.16
                             4733.45  5177.81  5202.84  5208.21  5230.06
                             5371.50  5390.34  5430.01  5478.79

 Zero-point correction=                           0.246167 (Hartree/Particle)
 Thermal correction to Energy=                    0.264906
 Thermal correction to Enthalpy=                  0.265851
 Thermal correction to Gibbs Free Energy=         0.199703
 Sum of electronic and zero-point Energies=           -839.742478
 Sum of electronic and thermal Energies=              -839.723739
 Sum of electronic and thermal Enthalpies=            -839.722794
 Sum of electronic and thermal Free Energies=         -839.788942

                     E (Thermal)             CV                S
                      KCal/Mol        Cal/Mol-Kelvin    Cal/Mol-Kelvin
 Total                  166.231             66.922            139.219
 Electronic               0.000              0.000              0.000
 Translational            0.889              2.981             42.015
 Rotational               0.889              2.981             32.129
 Vibrational            164.454             60.960             65.075
 Vibration     1          0.593              1.984              6.013
 Vibration     2          0.595              1.978              4.842
 Vibration     3          0.596              1.975              4.609
 Vibration     4          0.601              1.960              3.790
 Vibration     5          0.603              1.952              3.521
 Vibration     6          0.608              1.936              3.162
 Vibration     7          0.608              1.935              3.140
 Vibration     8          0.616              1.909              2.747
 Vibration     9          0.620              1.895              2.591
 Vibration    10          0.622              1.892              2.553
 Vibration    11          0.625              1.882              2.459
 Vibration    12          0.633              1.855              2.234
 Vibration    13          0.646              1.815              1.983
 Vibration    14          0.651              1.800              1.902
 Vibration    15          0.660              1.772              1.768
 Vibration    16          0.676              1.722              1.573
 Vibration    17          0.691              1.679              1.432
 Vibration    18          0.702              1.645              1.335
 Vibration    19          0.710              1.624              1.280
 Vibration    20          0.729              1.570              1.155
 Vibration    21          0.740              1.539              1.091
 Vibration    22          0.747              1.521              1.055
 Vibration    23          0.758              1.492              1.001
 Vibration    24          0.781              1.432              0.900
 Vibration    25          0.795              1.394              0.843
 Vibration    26          0.831              1.306              0.725
 Vibration    27          0.850              1.262              0.671
 Vibration    28          0.864              1.231              0.637
 Vibration    29          0.901              1.150              0.554
 Vibration    30          0.940              1.067              0.479

 Normal termination of Gaussian 09 at Sun Jan 15 14:31:43 2017.
