 Gaussian 09, Revision D.01,
 Gaussian 09:  ES64L-G09RevD.01 24-Apr-2013

 ---------------------------------
 # opt=modredundant b3lyp/6-31G(d)
 ---------------------------------

 ------------------------
 Glo_A_ch2_GS_b3lyp_631Gd
 ------------------------
 Symbolic Z-matrix:
 Charge =  0 Multiplicity = 1

 SCF Done:  E(RB3LYP) =  -687.148268673     A.U. after   14 cycles
 Optimization completed.
    -- Stationary point found.
 SCF Done:  E(RB3LYP) =  -687.147061393     A.U. after   11 cycles
 SCF Done:  E(RB3LYP) =  -687.147584599     A.U. after   11 cycles
 SCF Done:  E(RB3LYP) =  -687.146402037     A.U. after   12 cycles
 SCF Done:  E(RB3LYP) =  -687.147675592     A.U. after    9 cycles
 SCF Done:  E(RB3LYP) =  -687.147717857     A.U. after   11 cycles
 SCF Done:  E(RB3LYP) =  -687.147741969     A.U. after   11 cycles
 SCF Done:  E(RB3LYP) =  -687.147745200     A.U. after    8 cycles
 SCF Done:  E(RB3LYP) =  -687.147745528     A.U. after    8 cycles
 SCF Done:  E(RB3LYP) =  -687.147746486     A.U. after    7 cycles
 Optimization completed.
 SCF Done:  E(RB3LYP) =  -687.137197469     A.U. after   11 cycles
 SCF Done:  E(RB3LYP) =  -687.138771764     A.U. after   11 cycles
 SCF Done:  E(RB3LYP) =  -687.138852401     A.U. after   11 cycles
 SCF Done:  E(RB3LYP) =  -687.138855898     A.U. after    8 cycles
 SCF Done:  E(RB3LYP) =  -687.138856216     A.U. after    7 cycles
    -- Stationary point found.
 SCF Done:  E(RB3LYP) =  -687.135578605     A.U. after   11 cycles
 SCF Done:  E(RB3LYP) =  -687.137186221     A.U. after   11 cycles
 SCF Done:  E(RB3LYP) =  -687.137276571     A.U. after   11 cycles
 SCF Done:  E(RB3LYP) =  -687.137280873     A.U. after    9 cycles
 SCF Done:  E(RB3LYP) =  -687.137281005     A.U. after    7 cycles
 Optimization completed.
    -- Stationary point found.

                         Standard orientation:
 ---------------------------------------------------------------------
 Center     Atomic      Atomic             Coordinates (Angstroms)
 Number     Number       Type             X           Y           Z
 ---------------------------------------------------------------------
      1          6           0        1.186398    1.050640    0.603558
      2          8           0       -0.213307    1.217904    0.508174
      3          6           0        1.716711   -0.245601   -0.047941
      4          6           0        0.767094   -1.430882    0.193665
      5          6           0       -0.719891   -1.060490   -0.037289
      6          6           0       -0.867498    0.400195   -0.486968
      7          1           0        2.694477   -0.466743    0.412103
      8          1           0       -1.255333   -1.185413    0.905397
      9          1           0       -0.415910    0.553106   -1.473540
     10          1           0        1.038971   -2.223566   -0.517426
     11          8           0        1.860406   -0.094539   -1.452003
     12          8           0        0.880788   -1.888244    1.540888
     13          8           0       -1.351460   -1.938884   -0.965624
     14          1           0        1.758104   -2.288251    1.650520
     15          1           0        2.139377    0.829798   -1.587518
     16          1           0       -0.864225   -1.873680   -1.803554
     17          6           0       -2.319540    0.872612   -0.499562
     18          8           0       -2.908069    0.815745    0.788166
     19          1           0       -2.904687    0.216029   -1.148566
     20          1           0       -2.356168    1.894558   -0.911139
     21          1           0       -2.292096    1.276415    1.381828
     22          1           0        1.414861    1.059280    1.675734
     23          8           0        1.864352    2.107971   -0.057899
     24          1           0        1.401292    2.929997    0.169774
 ---------------------------------------------------------------------

 The electronic state is 1-A.
 Alpha  occ. eigenvalues --  -19.17564 -19.17219 -19.15633 -19.15591 -19.14810
 Alpha  occ. eigenvalues --  -19.13702 -10.29984 -10.24960 -10.24513 -10.23866
 Alpha  occ. eigenvalues --  -10.23377 -10.22677  -1.08797  -1.03564  -1.03270
 Alpha  occ. eigenvalues --   -1.01975  -1.01588  -1.00476  -0.77679  -0.77017
 Alpha  occ. eigenvalues --   -0.69585  -0.65251  -0.62779  -0.57556  -0.55894
 Alpha  occ. eigenvalues --   -0.53729  -0.52815  -0.50325  -0.49763  -0.48006
 Alpha  occ. eigenvalues --   -0.45864  -0.44968  -0.43219  -0.42372  -0.41414
 Alpha  occ. eigenvalues --   -0.40262  -0.39119  -0.37519  -0.35638  -0.34628
 Alpha  occ. eigenvalues --   -0.33365  -0.31989  -0.31000  -0.30268  -0.28056
 Alpha  occ. eigenvalues --   -0.27398  -0.26721  -0.25527
 Alpha virt. eigenvalues --    0.05088   0.06124   0.07550   0.09004   0.10999
 Alpha virt. eigenvalues --    0.11565   0.12946   0.13716   0.15118   0.15827
 Alpha virt. eigenvalues --    0.16807   0.17524   0.18221   0.19268   0.20428

 Mulliken charges:
               1
     1  C    0.345938
     2  O   -0.531769
     3  C    0.070504
     4  C    0.107685
     5  C    0.121844
     6  C    0.067307
     7  H    0.121071
     8  H    0.184688
     9  H    0.138768
    10  H    0.140599
    11  O   -0.652190
    12  O   -0.631643
    13  O   -0.627931
    14  H    0.393146
    15  H    0.420061
    16  H    0.389883
    17  C   -0.032633
    18  O   -0.619698
    19  H    0.163608
    20  H    0.121872
    21  H    0.400600
    22  H    0.142618
    23  O   -0.639473
    24  H    0.405146
 Sum of Mulliken charges =   0.00000

 Dipole moment (field-independent basis, Debye):
    X=              3.4966    Y=              1.9889    Z=             -0.5410  Tot=              4.0589
 Quadrupole moment (field-independent basis, Debye-Ang):
   XX=            -77.9178   YY=            -65.1825   ZZ=            -67.6761
   XY=             -5.0858   XZ=              6.3514   YZ=              0.9676

 Normal termination of Gaussian 09 at Fri Mar 17 19:29:04 2017.
