 Gaussian 09, Revision D.01,
 Gaussian 09:  ES64L-G09RevD.01 24-Apr-2013

 --------------------
 # opt b3lyp/6-31g(d)
 --------------------

 -------------------
 Title Card Required
 -------------------
 Symbolic Z-matrix:
 Charge =  0 Multiplicity = 1

 SCF Done:  E(RB3LYP) =  -687.143645405     A.U. after   14 cycles
 SCF Done:  E(RB3LYP) =  -687.144415402     A.U. after   12 cycles
 SCF Done:  E(RB3LYP) =  -687.144945577     A.U. after   12 cycles
 SCF Done:  E(RB3LYP) =  -687.145740983     A.U. after   12 cycles
 SCF Done:  E(RB3LYP) =  -687.147603727     A.U. after   12 cycles
 SCF Done:  E(RB3LYP) =  -687.148167127     A.U. after   11 cycles
 SCF Done:  E(RB3LYP) =  -687.148243781     A.U. after   11 cycles
 SCF Done:  E(RB3LYP) =  -687.148256044     A.U. after   11 cycles
 SCF Done:  E(RB3LYP) =  -687.148267386     A.U. after    8 cycles
 SCF Done:  E(RB3LYP) =  -687.148268215     A.U. after    7 cycles
 SCF Done:  E(RB3LYP) =  -687.148268510     A.U. after    7 cycles
 SCF Done:  E(RB3LYP) =  -687.148268673     A.U. after    6 cycles
 Optimization completed.
    -- Stationary point found.

                         Standard orientation:
 ---------------------------------------------------------------------
 Center     Atomic      Atomic             Coordinates (Angstroms)
 Number     Number       Type             X           Y           Z
 ---------------------------------------------------------------------
      1          6           0       -0.687704   -1.214500    0.207178
      2          8           0       -0.126483   -0.968558   -1.071344
      3          6           0       -1.249167    0.070646    0.833599
      4          6           0       -0.192479    1.188080    0.869909
      5          6           0        0.488641    1.338611   -0.503701
      6          6           0        0.945784   -0.007598   -1.115339
      7          1           0       -1.589213   -0.160035    1.858111
      8          1           0        1.363451    1.988423   -0.386634
      9          1           0        1.073472    0.198279   -2.184071
     10          1           0       -0.694122    2.137815    1.092529
     11          8           0       -2.338204    0.544212    0.047284
     12          8           0        0.817236    0.927050    1.853318
     13          8           0       -0.397835    2.006768   -1.387293
     14          1           0        0.392349    0.836234    2.720944
     15          1           0       -2.771193   -0.263733   -0.289924
     16          1           0       -1.258904    1.553880   -1.300162
     17          6           0        2.283741   -0.590404   -0.631539
     18          8           0        2.321719   -1.075866    0.697215
     19          1           0        3.062386    0.172970   -0.810099
     20          1           0        2.519512   -1.448118   -1.270077
     21          1           0        2.027626   -0.351878    1.283501
     22          1           0        0.056830   -1.682788    0.860482
     23          8           0       -1.800343   -2.053836   -0.000702
     24          1           0       -1.523810   -2.728229   -0.643066
 ---------------------------------------------------------------------

 The electronic state is 1-A.
 Alpha  occ. eigenvalues --  -19.18740 -19.17463 -19.16626 -19.16081 -19.13477
 Alpha  occ. eigenvalues --  -19.13172 -10.29156 -10.25729 -10.25400 -10.24320
 Alpha  occ. eigenvalues --  -10.23953 -10.22936  -1.08744  -1.05747  -1.03490
 Alpha  occ. eigenvalues --   -1.02248  -1.00832  -0.99994  -0.78377  -0.76899
 Alpha  occ. eigenvalues --   -0.69661  -0.65741  -0.63631  -0.57841  -0.54904
 Alpha  occ. eigenvalues --   -0.53246  -0.52999  -0.52324  -0.50039  -0.48131
 Alpha  occ. eigenvalues --   -0.46720  -0.45178  -0.44173  -0.43447  -0.41899
 Alpha  occ. eigenvalues --   -0.40268  -0.38780  -0.37394  -0.36880  -0.34863
 Alpha  occ. eigenvalues --   -0.33137  -0.32597  -0.31271  -0.30773  -0.28489
 Alpha  occ. eigenvalues --   -0.28443  -0.26550  -0.24085
 Alpha virt. eigenvalues --    0.03334   0.06275   0.09584   0.09899   0.12120
 Alpha virt. eigenvalues --    0.12838   0.13185   0.14403   0.15082   0.16728
 Alpha virt. eigenvalues --    0.16977   0.17466   0.17996   0.19560   0.20620

 Mulliken charges:
               1
     1  C    0.335111
     2  O   -0.520348
     3  C    0.086670
     4  C    0.081318
     5  C    0.107928
     6  C    0.079874
     7  H    0.124000
     8  H    0.147940
     9  H    0.158323
    10  H    0.163041
    11  O   -0.650554
    12  O   -0.646130
    13  O   -0.645981
    14  H    0.410035
    15  H    0.422168
    16  H    0.417288
    17  C   -0.039848
    18  O   -0.642317
    19  H    0.119761
    20  H    0.149337
    21  H    0.422484
    22  H    0.151759
    23  O   -0.643781
    24  H    0.411923
 Sum of Mulliken charges =   0.00000

 Dipole moment (field-independent basis, Debye):
    X=             -0.7477    Y=             -0.8499    Z=              1.5952  Tot=              1.9560
 Quadrupole moment (field-independent basis, Debye-Ang):
   XX=            -74.1391   YY=            -73.6005   ZZ=            -64.4122
   XY=              5.4353   XZ=             -2.4684   YZ=              7.3257

 Normal termination of Gaussian 09 at Fri Mar 17 18:38:47 2017.
