 Gaussian 09, Revision E.01,
 Gaussian 09:  ES64L-G09RevE.01 30-Nov-2015

 -------------------------
 # b3lyp/6-31g(d) opt freq
 -------------------------

 ----------------------------------
 glo_2w_beta_ircf_boat1_B3LYP_631Gd
 ----------------------------------
 Symbolic Z-matrix:
 Charge =  0 Multiplicity = 1

 SCF Done:  E(RB3LYP) =  -839.982357886     A.U. after   14 cycles
 SCF Done:  E(RB3LYP) =  -839.990808242     A.U. after   12 cycles
 SCF Done:  E(RB3LYP) =  -839.997475972     A.U. after   12 cycles
 SCF Done:  E(RB3LYP) =  -840.000444946     A.U. after   12 cycles
 SCF Done:  E(RB3LYP) =  -840.002502116     A.U. after   12 cycles
 SCF Done:  E(RB3LYP) =  -840.002885497     A.U. after   11 cycles
 SCF Done:  E(RB3LYP) =  -840.003059328     A.U. after   11 cycles
 SCF Done:  E(RB3LYP) =  -840.003134905     A.U. after   11 cycles
 SCF Done:  E(RB3LYP) =  -840.003163138     A.U. after   10 cycles
 SCF Done:  E(RB3LYP) =  -840.003182001     A.U. after    9 cycles
 SCF Done:  E(RB3LYP) =  -840.003191348     A.U. after    8 cycles
 SCF Done:  E(RB3LYP) =  -840.003203183     A.U. after    9 cycles
 SCF Done:  E(RB3LYP) =  -840.003211387     A.U. after    9 cycles
 SCF Done:  E(RB3LYP) =  -840.003214386     A.U. after    7 cycles
 Optimization completed.
    -- Stationary point found.
 Normal termination of Gaussian 09 at Sun Jan 15 21:14:39 2017.

 --------------------------------------------------------------------
 #N Geom=AllCheck Guess=TCheck SCRF=Check GenChk RB3LYP/6-31G(d) Freq
 --------------------------------------------------------------------

 Structure from the checkpoint file:  "/scratch/10464861.yak.local/Gau-12150.chk"
 ----------------------------------
 glo_2w_beta_ircf_boat1_B3LYP_631Gd
 ----------------------------------
 Charge =  0 Multiplicity = 1

                         Standard orientation:
 ---------------------------------------------------------------------
 Center     Atomic      Atomic             Coordinates (Angstroms)
 Number     Number       Type             X           Y           Z
 ---------------------------------------------------------------------
      1          1           0        0.348371    1.475359    1.519693
      2          6           0        0.085941    1.048248    0.544777
      3          6           0        1.979576   -0.533791    0.262230
      4          6           0       -0.422410   -1.280459   -0.086810
      5          6           0        1.067283   -1.665506   -0.205818
      6          8           0       -0.614215   -0.176788    0.840338
      7          6           0        1.409901    0.799063   -0.200919
      8          1           0       -0.962878   -2.099564    0.400115
      9          1           0        1.270836   -1.847692   -1.269390
     10          1           0        1.233231    0.756320   -1.286309
     11          6           0       -0.818930    2.032928   -0.196980
     12          1           0       -1.734228    2.215546    0.383321
     13          1           0       -1.094424    1.606233   -1.169325
     14          8           0       -0.917675   -0.987532   -1.347976
     15          1           0        2.000375   -0.540935    1.363975
     16          8           0       -0.053729    3.237338   -0.349343
     17          1           0       -0.533453    3.833781   -0.942291
     18          8           0        1.271178   -2.849141    0.556997
     19          1           0        2.218161   -3.054050    0.491419
     20          8           0        3.279043   -0.769293   -0.259336
     21          1           0        3.770854    0.059181   -0.126000
     22          8           0        2.366040    1.807409    0.102700
     23          1           0        1.955208    2.649771   -0.162372
     24          8           0       -3.289843    0.164163    1.403853
     25          1           0       -1.909015   -1.027972   -1.307667
     26          1           0       -2.311745    0.044686    1.346775
     27          1           0       -3.563372   -0.326551    2.193520
     28          8           0       -3.631500   -1.059686   -1.000574
     29          1           0       -3.682689   -0.629995   -0.109486
     30          1           0       -4.087796   -0.448783   -1.598137
 ---------------------------------------------------------------------

 SCF Done:  E(RB3LYP) =  -840.003214386     A.U. after    1 cycles

 The electronic state is 1-A.
 Alpha  occ. eigenvalues --  -19.17141 -19.17068 -19.15962 -19.14782 -19.14578
 Alpha  occ. eigenvalues --  -19.14022 -19.14013 -19.13616 -10.28382 -10.24513
 Alpha  occ. eigenvalues --  -10.24188 -10.23500 -10.22958 -10.22837  -1.06717
 Alpha  occ. eigenvalues --   -1.04028  -1.03034  -1.01923  -1.01558  -1.00584
 Alpha  occ. eigenvalues --   -1.00039  -0.99190  -0.78142  -0.76531  -0.69185
 Alpha  occ. eigenvalues --   -0.63660  -0.62159  -0.56343  -0.55305  -0.54401
 Alpha  occ. eigenvalues --   -0.54211  -0.52716  -0.51835  -0.51055  -0.48039
 Alpha  occ. eigenvalues --   -0.47164  -0.45105  -0.44709  -0.43275  -0.42263
 Alpha  occ. eigenvalues --   -0.41476  -0.41047  -0.40433  -0.38399  -0.37868
 Alpha  occ. eigenvalues --   -0.36188  -0.35889  -0.34676  -0.32498  -0.31894
 Alpha  occ. eigenvalues --   -0.31540  -0.30569  -0.29672  -0.29143  -0.27314
 Alpha  occ. eigenvalues --   -0.26707  -0.26342  -0.25674
 Alpha virt. eigenvalues --    0.03894   0.05106   0.08214   0.08662   0.10831
 Alpha virt. eigenvalues --    0.11092   0.12134   0.13391   0.14022   0.14323
 Alpha virt. eigenvalues --    0.15568   0.16657   0.17502   0.18090   0.19129

 Mulliken charges:
               1
     1  H    0.156916
     2  C    0.133757
     3  C    0.114266
     4  C    0.295614
     5  C    0.133767
     6  O   -0.554408
     7  C    0.077811
     8  H    0.155123
     9  H    0.156797
    10  H    0.141275
    11  C   -0.078188
    12  H    0.148709
    13  H    0.151841
    14  O   -0.656550
    15  H    0.130195
    16  O   -0.639564
    17  H    0.407656
    18  O   -0.648187
    19  H    0.405442
    20  O   -0.660838
    21  H    0.413537
    22  O   -0.670101
    23  H    0.421032
    24  O   -0.822022
    25  H    0.437699
    26  H    0.441592
    27  H    0.401796
    28  O   -0.819579
    29  H    0.429635
    30  H    0.394974
 Sum of Mulliken charges =  -0.00000

 Dipole moment (field-independent basis, Debye):
    X=             -2.4549    Y=              3.2868    Z=              0.1273  Tot=              4.1044
 Quadrupole moment (field-independent basis, Debye-Ang):
   XX=            -78.2903   YY=            -81.2936   ZZ=            -79.5608
   XY=             -4.9448   XZ=             -0.3443   YZ=             -8.6445

  Exact polarizability: 105.248  -1.693  98.021   0.665  -2.727  79.710
 Approx polarizability: 132.257   1.413 127.187   0.312  -2.940 121.009

                      1                      2                      3
                      A                      A                      A
 Frequencies --     32.4864                42.4519                53.8430
 Red. masses --      5.3183                 5.6754                 5.4629
 Frc consts  --      0.0033                 0.0060                 0.0093
 IR Inten    --      0.3378                 1.3357                 2.6043

                      4                      5                      6
                      A                      A                      A
 Frequencies --     90.5657               104.6467               126.9733
 Red. masses --      6.0090                 6.7048                 5.3697
 Frc consts  --      0.0290                 0.0433                 0.0510
 IR Inten    --      3.3624                 5.1154                 9.5023

                      7                      8                      9
                      A                      A                      A
 Frequencies --    144.0596               173.8310               198.6872
 Red. masses --      4.7837                 5.0928                 5.6891
 Frc consts  --      0.0585                 0.0907                 0.1323
 IR Inten    --      3.8752                17.0851                 3.4870

                     10                     11                     12
                      A                      A                      A
 Frequencies --    209.7707               236.4182               241.4067
 Red. masses --      2.7510                 1.8362                 1.9674
 Frc consts  --      0.0713                 0.0605                 0.0676
 IR Inten    --      9.7099                20.6211                45.1329

                     13                     14                     15
                      A                      A                      A
 Frequencies --    254.6507               271.2899               277.5034
 Red. masses --      1.1159                 3.7908                 5.3550
 Frc consts  --      0.0426                 0.1644                 0.2430
 IR Inten    --    134.7163                12.6654                29.9151

                     16                     17                     18
                      A                      A                      A
 Frequencies --    289.3821               329.3207               348.1045
 Red. masses --      3.8177                 4.0938                 1.2917
 Frc consts  --      0.1884                 0.2616                 0.0922
 IR Inten    --      6.1822                 5.4264               122.9902

                     19                     20                     21
                      A                      A                      A
 Frequencies --    381.0126               397.8308               413.1679
 Red. masses --      1.5633                 2.8118                 1.2527
 Frc consts  --      0.1337                 0.2622                 0.1260
 IR Inten    --     41.9901                81.0376                84.2400

                     22                     23                     24
                      A                      A                      A
 Frequencies --    424.7725               432.8218               460.2424
 Red. masses --      2.8402                 1.3040                 2.3408
 Frc consts  --      0.3019                 0.1439                 0.2921
 IR Inten    --     25.3489               109.2657                29.2760

                     25                     26                     27
                      A                      A                      A
 Frequencies --    474.9031               489.8199               507.9909
 Red. masses --      3.5191                 1.4953                 4.4214
 Frc consts  --      0.4676                 0.2114                 0.6722
 IR Inten    --      4.1980                65.8859                 7.6764

                     28                     29                     30
                      A                      A                      A
 Frequencies --    527.9692               545.7814               587.4917
 Red. masses --      1.3183                 3.0633                 3.7680
 Frc consts  --      0.2165                 0.5376                 0.7662
 IR Inten    --    115.9709                19.1518                17.6086

                     31                     32                     33
                      A                      A                      A
 Frequencies --    615.9564               753.4695               769.1399
 Red. masses --      3.4471                 1.6151                 2.0452
 Frc consts  --      0.7706                 0.5402                 0.7128
 IR Inten    --     15.5774                74.8908                55.0721

                     34                     35                     36
                      A                      A                      A
 Frequencies --    826.0381               897.7194               919.8421
 Red. masses --      1.1192                 3.9378                 1.9512
 Frc consts  --      0.4499                 1.8698                 0.9727
 IR Inten    --    113.1113               115.8219                 7.1950

                     37                     38                     39
                      A                      A                      A
 Frequencies --    991.6206              1006.2867              1015.9010
 Red. masses --      1.0912                 2.8430                 3.1612
 Frc consts  --      0.6322                 1.6962                 1.9222
 IR Inten    --    275.0332                15.4667                26.2878

                     40                     41                     42
                      A                      A                      A
 Frequencies --   1049.7971              1056.1912              1058.3216
 Red. masses --      5.2422                 3.3586                 5.7581
 Frc consts  --      3.4039                 2.2075                 3.7999
 IR Inten    --    266.1318                60.9528                 8.6742

                     43                     44                     45
                      A                      A                      A
 Frequencies --   1106.4517              1111.7143              1127.7351
 Red. masses --      2.6703                 2.8391                 2.4883
 Frc consts  --      1.9261                 2.0673                 1.8645
 IR Inten    --     28.3394                41.5823                73.5272

                     46                     47                     48
                      A                      A                      A
 Frequencies --   1144.6031              1146.4448              1164.0630
 Red. masses --      3.6907                 4.6648                 3.2566
 Frc consts  --      2.8489                 3.6124                 2.5999
 IR Inten    --     71.2313                37.7811                39.3895

                     49                     50                     51
                      A                      A                      A
 Frequencies --   1225.8860              1245.9236              1262.6221
 Red. masses --      1.2487                 1.2092                 1.1563
 Frc consts  --      1.1057                 1.1060                 1.0861
 IR Inten    --     11.0987                31.2192                 0.9757

                     52                     53                     54
                      A                      A                      A
 Frequencies --   1268.7211              1288.5927              1330.6297
 Red. masses --      1.1291                 1.1293                 1.2222
 Frc consts  --      1.0709                 1.1048                 1.2750
 IR Inten    --     58.5925                24.3358                10.9068

                     55                     56                     57
                      A                      A                      A
 Frequencies --   1341.8687              1369.2419              1375.9539
 Red. masses --      1.2306                 1.2881                 1.1713
 Frc consts  --      1.3055                 1.4229                 1.3065
 IR Inten    --     32.3851                70.0792                 4.3706

                     58                     59                     60
                      A                      A                      A
 Frequencies --   1392.7992              1402.5947              1416.8002
 Red. masses --      1.2075                 1.2457                 1.4637
 Frc consts  --      1.3801                 1.4438                 1.7311
 IR Inten    --     70.7432                 4.4905                 8.8796

                     61                     62                     63
                      A                      A                      A
 Frequencies --   1433.6208              1457.8796              1462.3284
 Red. masses --      1.5117                 1.4797                 1.5036
 Frc consts  --      1.8305                 1.8530                 1.8944
 IR Inten    --     38.1846                15.6143                 8.4632

                     64                     65                     66
                      A                      A                      A
 Frequencies --   1482.4847              1557.5219              1561.4702
 Red. masses --      1.5446                 1.2768                 1.0903
 Frc consts  --      2.0000                 1.8249                 1.5663
 IR Inten    --     13.8672                34.1035                 6.0506

                     67                     68                     69
                      A                      A                      A
 Frequencies --   1718.8911              1739.6379              2999.9862
 Red. masses --      1.0787                 1.0689                 1.0820
 Frc consts  --      1.8778                 1.9060                 5.7375
 IR Inten    --     78.2452                32.9249                16.0211

                     70                     71                     72
                      A                      A                      A
 Frequencies --   3022.1245              3033.8184              3051.2120
 Red. masses --      1.0839                 1.0587                 1.0851
 Frc consts  --      5.8325                 5.7411                 5.9518
 IR Inten    --     28.0255                33.7004                34.5889

                     73                     74                     75
                      A                      A                      A
 Frequencies --   3068.4297              3083.7375              3092.2962
 Red. masses --      1.0888                 1.0877                 1.1038
 Frc consts  --      6.0398                 6.0942                 6.2186
 IR Inten    --     10.5530                28.0041                46.2068

                     76                     77                     78
                      A                      A                      A
 Frequencies --   3310.0457              3412.5147              3476.1475
 Red. masses --      1.0671                 1.0628                 1.0595
 Frc consts  --      6.8885                 7.2921                 7.5429
 IR Inten    --    339.5909              1097.3211               706.7541

                     79                     80                     81
                      A                      A                      A
 Frequencies --   3694.4913              3716.8091              3737.1480
 Red. masses --      1.0656                 1.0654                 1.0659
 Frc consts  --      8.5692                 8.6717                 8.7706
 IR Inten    --    107.5979                39.0564                28.2895

                     82                     83                     84
                      A                      A                      A
 Frequencies --   3771.7101              3797.9023              3799.6912
 Red. masses --      1.0668                 1.0685                 1.0678
 Frc consts  --      8.9412                 9.0809                 9.0828
 IR Inten    --     28.7547                80.9444                38.9912

 - Thermochemistry -
 -------------------
 Temperature   298.150 Kelvin.  Pressure   1.00000 Atm.
 Atom     1 has atomic number  1 and mass   1.00783

 Molecular mass:   216.08452 amu.
 Principal axes and moments of inertia in atomic units:
                           1         2         3
     Eigenvalues --  2483.184293560.977715163.41966
           X            0.99998  -0.00617  -0.00051
           Y            0.00617   0.99996  -0.00679
           Z            0.00056   0.00679   0.99998
 This molecule is an asymmetric top.
 Rotational symmetry number  1.
 Warning -- assumption of classical behavior for rotation
           may cause significant error
 Rotational temperatures (Kelvin)      0.03488     0.02432     0.01677
 Rotational constants (GHZ):           0.72679     0.50681     0.34952
 Zero-point vibrational energy     653364.6 (Joules/Mol)
                                  156.15788 (Kcal/Mol)
 Warning -- explicit consideration of  31 degrees of freedom as
           vibrations may cause significant error
 Vibrational temperatures:     46.74    61.08    77.47   130.30   150.56
          (Kelvin)            182.69   207.27   250.10   285.87   301.81
                              340.15   347.33   366.39   390.33   399.27
                              416.36   473.82   500.84   548.19   572.39
                              594.46   611.15   622.73   662.19   683.28
                              704.74   730.88   759.63   785.26   845.27
                              886.22  1084.07  1106.62  1188.48  1291.62
                             1323.45  1426.72  1447.82  1461.65  1510.42
                             1519.62  1522.69  1591.94  1599.51  1622.56
                             1646.83  1649.48  1674.82  1763.77  1792.60
                             1816.63  1825.40  1854.00  1914.48  1930.65
                             1970.03  1979.69  2003.92  2018.02  2038.46
                             2062.66  2097.56  2103.96  2132.96  2240.92
                             2246.60  2473.10  2502.95  4316.31  4348.16
                             4364.98  4390.01  4414.78  4436.80  4449.12
                             4762.41  4909.84  5001.39  5315.54  5347.65
                             5376.92  5426.64  5464.33  5466.90

 Zero-point correction=                           0.248853 (Hartree/Particle)
 Thermal correction to Energy=                    0.266346
 Thermal correction to Enthalpy=                  0.267290
 Thermal correction to Gibbs Free Energy=         0.204073
 Sum of electronic and zero-point Energies=           -839.754361
 Sum of electronic and thermal Energies=              -839.736868
 Sum of electronic and thermal Enthalpies=            -839.735924
 Sum of electronic and thermal Free Energies=         -839.799142

                     E (Thermal)             CV                S
                      KCal/Mol        Cal/Mol-Kelvin    Cal/Mol-Kelvin
 Total                  167.135             64.422            133.053
 Electronic               0.000              0.000              0.000
 Translational            0.889              2.981             42.015
 Rotational               0.889              2.981             32.190
 Vibrational            165.357             58.461             58.848
 Vibration     1          0.594              1.983              5.672
 Vibration     2          0.595              1.980              5.141
 Vibration     3          0.596              1.976              4.671
 Vibration     4          0.602              1.956              3.648
 Vibration     5          0.605              1.946              3.366
 Vibration     6          0.611              1.926              2.991
 Vibration     7          0.616              1.909              2.749
 Vibration     8          0.627              1.875              2.394
 Vibration     9          0.637              1.842              2.145
 Vibration    10          0.642              1.826              2.046
 Vibration    11          0.655              1.785              1.830
 Vibration    12          0.658              1.777              1.792
 Vibration    13          0.665              1.755              1.698
 Vibration    14          0.675              1.726              1.588
 Vibration    15          0.678              1.715              1.549
 Vibration    16          0.686              1.693              1.478
 Vibration    17          0.712              1.617              1.263
 Vibration    18          0.726              1.579              1.175
 Vibration    19          0.751              1.511              1.035
 Vibration    20          0.764              1.475              0.971
 Vibration    21          0.777              1.442              0.915
 Vibration    22          0.787              1.416              0.876
 Vibration    23          0.794              1.399              0.849
 Vibration    24          0.818              1.338              0.765
 Vibration    25          0.832              1.306              0.724
 Vibration    26          0.846              1.273              0.684
 Vibration    27          0.863              1.232              0.638
 Vibration    28          0.883              1.188              0.592
 Vibration    29          0.901              1.149              0.553
 Vibration    30          0.945              1.058              0.472
 Vibration    31          0.976              0.998              0.423

 Normal termination of Gaussian 09 at Sun Jan 15 21:45:09 2017.
