 Gaussian 09, Revision E.01,
 Gaussian 09:  ES64L-G09RevE.01 30-Nov-2015

 -------------------------
 # b3lyp/6-31g(d) opt freq
 -------------------------

 -----------------------------------
 glo_2w_alpha_ircr_boat1_B3LYP_631Gd
 -----------------------------------
 Symbolic Z-matrix:
 Charge =  0 Multiplicity = 1

 SCF Done:  E(RB3LYP) =  -839.968356148     A.U. after   14 cycles
 SCF Done:  E(RB3LYP) =  -839.974323803     A.U. after   14 cycles
 SCF Done:  E(RB3LYP) =  -839.980223579     A.U. after   13 cycles
 SCF Done:  E(RB3LYP) =  -839.985591814     A.U. after   13 cycles
 SCF Done:  E(RB3LYP) =  -839.989075994     A.U. after   12 cycles
 SCF Done:  E(RB3LYP) =  -839.990142436     A.U. after   12 cycles
 SCF Done:  E(RB3LYP) =  -839.992114610     A.U. after   12 cycles
 SCF Done:  E(RB3LYP) =  -839.992545985     A.U. after   12 cycles
 SCF Done:  E(RB3LYP) =  -839.991681346     A.U. after   13 cycles
 SCF Done:  E(RB3LYP) =  -839.992945086     A.U. after   10 cycles
 SCF Done:  E(RB3LYP) =  -839.998983348     A.U. after   11 cycles
 SCF Done:  E(RB3LYP) =  -839.999043442     A.U. after   11 cycles
 SCF Done:  E(RB3LYP) =  -839.999056992     A.U. after    9 cycles
 SCF Done:  E(RB3LYP) =  -839.999062486     A.U. after    9 cycles
 SCF Done:  E(RB3LYP) =  -839.999065240     A.U. after    8 cycles
 SCF Done:  E(RB3LYP) =  -839.999067464     A.U. after    8 cycles
 SCF Done:  E(RB3LYP) =  -839.999068304     A.U. after    7 cycles
 SCF Done:  E(RB3LYP) =  -839.999068886     A.U. after    7 cycles
 SCF Done:  E(RB3LYP) =  -839.999069121     A.U. after    7 cycles
 Optimization completed.
    -- Stationary point found.
 Normal termination of Gaussian 09 at Sun Jan 15 22:29:32 2017.

 --------------------------------------------------------------------
 #N Geom=AllCheck Guess=TCheck SCRF=Check GenChk RB3LYP/6-31G(d) Freq
 --------------------------------------------------------------------

 Structure from the checkpoint file:  "/scratch/10464860.yak.local/Gau-27721.chk"
 -----------------------------------
 glo_2w_alpha_ircr_boat1_B3LYP_631Gd
 -----------------------------------
 Charge =  0 Multiplicity = 1

                         Standard orientation:
 ---------------------------------------------------------------------
 Center     Atomic      Atomic             Coordinates (Angstroms)
 Number     Number       Type             X           Y           Z
 ---------------------------------------------------------------------
      1          1           0       -1.640923   -0.886176    1.189470
      2          6           0       -1.584569   -0.746731    0.100386
      3          6           0        0.145800    1.109221    0.325296
      4          6           0        1.379595   -0.102794   -1.633845
      5          6           0        1.224480    1.146349   -0.779498
      6          8           0       -0.576362   -1.562662   -0.466735
      7          6           0       -1.287687    0.749446   -0.140859
      8          1           0        0.914009    1.939713   -1.483123
      9          1           0       -1.403900    0.978405   -1.215278
     10          6           0       -2.909790   -1.186031   -0.524261
     11          1           0       -3.081121   -2.244924   -0.291470
     12          1           0       -2.839608   -1.081853   -1.616776
     13          1           0        0.466948    0.386793    1.089163
     14          8           0       -3.964805   -0.367366    0.004530
     15          1           0       -4.768976   -0.517713   -0.513400
     16          8           0        2.467161    1.491673   -0.180648
     17          1           0        2.257636    2.257475    0.385197
     18          8           0        0.195756    2.423102    0.872496
     19          1           0       -0.703646    2.608533    1.202519
     20          8           0       -2.168940    1.566772    0.623859
     21          1           0       -3.064212    1.189039    0.515792
     22          1           0        0.554755   -0.262895   -2.348890
     23          8           0        2.348215   -0.835403   -1.633737
     24          8           0        1.027145   -2.071873    1.632159
     25          1           0        1.192424   -2.987088    1.901876
     26          1           0        1.929445   -1.684175    1.447236
     27          1           0        0.026263   -1.861584    0.265229
     28          8           0        3.392754   -0.956427    0.956899
     29          1           0        3.374365   -1.156920    0.000423
     30          1           0        3.212176    0.004073    0.918129
 ---------------------------------------------------------------------

 SCF Done:  E(RB3LYP) =  -839.999069121     A.U. after    1 cycles

 The electronic state is 1-A.
 Alpha  occ. eigenvalues --  -19.17927 -19.16676 -19.15975 -19.15137 -19.14735
 Alpha  occ. eigenvalues --  -19.14159 -19.13649 -19.13470 -10.28649 -10.25525
 Alpha  occ. eigenvalues --  -10.24737 -10.24636 -10.24532 -10.24080  -1.06326
 Alpha  occ. eigenvalues --   -1.05215  -1.04381  -1.03004  -1.01491  -1.00359
 Alpha  occ. eigenvalues --   -1.00063  -0.98557  -0.78437  -0.75469  -0.70072
 Alpha  occ. eigenvalues --   -0.63823  -0.60293  -0.57489  -0.55731  -0.55011
 Alpha  occ. eigenvalues --   -0.52784  -0.52158  -0.50458  -0.49635  -0.49289
 Alpha  occ. eigenvalues --   -0.46844  -0.45993  -0.45370  -0.44926  -0.43851
 Alpha  occ. eigenvalues --   -0.42597  -0.41144  -0.39804  -0.38218  -0.37627
 Alpha  occ. eigenvalues --   -0.37466  -0.36110  -0.35793  -0.34442  -0.32786
 Alpha  occ. eigenvalues --   -0.30832  -0.29883  -0.29736  -0.29444  -0.28430
 Alpha  occ. eigenvalues --   -0.27131  -0.26381  -0.25375
 Alpha virt. eigenvalues --   -0.02901   0.04062   0.06585   0.07717   0.08706
 Alpha virt. eigenvalues --    0.10518   0.11852   0.13752   0.14363   0.14723
 Alpha virt. eigenvalues --    0.15514   0.16293   0.17114   0.17418   0.18746

 Mulliken charges:
               1
     1  H    0.150543
     2  C    0.083661
     3  C    0.108080
     4  C    0.278654
     5  C    0.059449
     6  O   -0.680708
     7  C    0.121639
     8  H    0.150253
     9  H    0.108625
    10  C   -0.048010
    11  H    0.148355
    12  H    0.137435
    13  H    0.154465
    14  O   -0.642031
    15  H    0.410747
    16  O   -0.644553
    17  H    0.429105
    18  O   -0.680391
    19  H    0.433974
    20  O   -0.692515
    21  H    0.435864
    22  H    0.132812
    23  O   -0.421495
    24  O   -0.834082
    25  H    0.397140
    26  H    0.436098
    27  H    0.448957
    28  O   -0.826763
    29  H    0.426086
    30  H    0.418607
 Sum of Mulliken charges =  -0.00000

 Dipole moment (field-independent basis, Debye):
    X=             -4.6134    Y=             -0.3376    Z=             -1.1452  Tot=              4.7654
 Quadrupole moment (field-independent basis, Debye-Ang):
   XX=            -78.4573   YY=            -79.7214   ZZ=            -83.6749
   XY=              5.0954   XZ=              6.6408   YZ=             -4.0929

  Exact polarizability: 112.902  -2.156  94.544   1.969   2.723  81.624
 Approx polarizability: 145.244 -10.830 132.890   1.136   6.516 119.469

                      1                      2                      3
                      A                      A                      A
 Frequencies --     39.4975                54.4437                63.0044
 Red. masses --      6.2526                 6.5211                 6.9516
 Frc consts  --      0.0057                 0.0114                 0.0163
 IR Inten    --      0.3177                 2.2368                 0.6346

                      4                      5                      6
                      A                      A                      A
 Frequencies --     69.3877                76.1036               117.4732
 Red. masses --      7.7081                 4.3230                 8.2793
 Frc consts  --      0.0219                 0.0148                 0.0673
 IR Inten    --      0.6310                 4.9460                 2.2366

                      7                      8                      9
                      A                      A                      A
 Frequencies --    153.4385               163.6992               184.7047
 Red. masses --      3.1273                 5.1195                 5.0863
 Frc consts  --      0.0434                 0.0808                 0.1022
 IR Inten    --      4.8628                 1.4043                13.2561

                     10                     11                     12
                      A                      A                      A
 Frequencies --    195.5939               225.9049               240.8971
 Red. masses --      5.0852                 4.1109                 5.0417
 Frc consts  --      0.1146                 0.1236                 0.1724
 IR Inten    --      1.8048                28.2573                33.3245

                     13                     14                     15
                      A                      A                      A
 Frequencies --    257.3673               262.4345               276.2481
 Red. masses --      1.1507                 1.3200                 1.2381
 Frc consts  --      0.0449                 0.0536                 0.0557
 IR Inten    --     65.0064                37.6580                83.1034

                     16                     17                     18
                      A                      A                      A
 Frequencies --    280.8915               303.9663               326.5763
 Red. masses --      3.8941                 5.5908                 2.7230
 Frc consts  --      0.1810                 0.3044                 0.1711
 IR Inten    --      9.2403                25.4137                12.4384

                     19                     20                     21
                      A                      A                      A
 Frequencies --    329.8922               345.9922               385.0651
 Red. masses --      4.3882                 4.9240                 2.2308
 Frc consts  --      0.2814                 0.3473                 0.1949
 IR Inten    --      4.0222                 2.2038               120.8389

                     22                     23                     24
                      A                      A                      A
 Frequencies --    406.5288               417.5430               431.1863
 Red. masses --      2.6647                 4.4386                 2.6108
 Frc consts  --      0.2595                 0.4559                 0.2860
 IR Inten    --     47.5974                13.9289                23.4683

                     25                     26                     27
                      A                      A                      A
 Frequencies --    450.5785               457.2041               501.4292
 Red. masses --      2.8501                 1.0738                 4.3282
 Frc consts  --      0.3409                 0.1322                 0.6412
 IR Inten    --      1.8228                31.3030                12.0514

                     28                     29                     30
                      A                      A                      A
 Frequencies --    550.9656               566.9144               573.6440
 Red. masses --      1.0705                 1.8091                 1.1509
 Frc consts  --      0.1915                 0.3426                 0.2231
 IR Inten    --    148.3476                59.1395                 1.8398

                     31                     32                     33
                      A                      A                      A
 Frequencies --    585.6175               631.3345               756.9591
 Red. masses --      1.7097                 3.2392                 4.7063
 Frc consts  --      0.3455                 0.7607                 1.5888
 IR Inten    --     87.2440                17.9058                52.3309

                     34                     35                     36
                      A                      A                      A
 Frequencies --    790.8283               853.7692               883.8444
 Red. masses --      1.1170                 2.0800                 1.0818
 Frc consts  --      0.4116                 0.8933                 0.4979
 IR Inten    --    306.1744                 5.9393               184.6087

                     37                     38                     39
                      A                      A                      A
 Frequencies --    907.9966               952.1662               990.5216
 Red. masses --      1.8615                 2.8773                 3.0442
 Frc consts  --      0.9042                 1.5370                 1.7598
 IR Inten    --      5.2777                 3.2455                12.4918

                     40                     41                     42
                      A                      A                      A
 Frequencies --   1010.1281              1042.7383              1060.5050
 Red. masses --      1.0561                 2.5094                 4.3434
 Frc consts  --      0.6349                 1.6076                 2.8781
 IR Inten    --     85.5315                83.3388                 8.2060

                     43                     44                     45
                      A                      A                      A
 Frequencies --   1090.2819              1108.5374              1115.9351
 Red. masses --      3.0012                 5.1046                 3.7935
 Frc consts  --      2.1020                 3.6958                 2.7834
 IR Inten    --    103.9622                56.9619                28.3184

                     46                     47                     48
                      A                      A                      A
 Frequencies --   1119.9130              1146.3538              1151.0989
 Red. masses --      3.6638                 3.0032                 3.9500
 Frc consts  --      2.7074                 2.3253                 3.0837
 IR Inten    --    109.2466                 5.2320                37.4540

                     49                     50                     51
                      A                      A                      A
 Frequencies --   1225.8391              1249.4518              1266.3112
 Red. masses --      1.1855                 1.1975                 1.2071
 Frc consts  --      1.0496                 1.1015                 1.1405
 IR Inten    --     12.3111                53.0569                10.0467

                     52                     53                     54
                      A                      A                      A
 Frequencies --   1286.1327              1306.3554              1332.5521
 Red. masses --      1.1201                 1.1745                 1.1032
 Frc consts  --      1.0917                 1.1810                 1.1542
 IR Inten    --     67.5183                 9.9804                42.3090

                     55                     56                     57
                      A                      A                      A
 Frequencies --   1341.7883              1364.2733              1398.2821
 Red. masses --      1.1633                 1.2061                 1.2000
 Frc consts  --      1.2340                 1.3227                 1.3824
 IR Inten    --     80.0614                21.9322                 9.0216

                     58                     59                     60
                      A                      A                      A
 Frequencies --   1410.6127              1419.5644              1443.6316
 Red. masses --      1.3580                 1.3467                 1.3113
 Frc consts  --      1.5921                 1.5989                 1.6102
 IR Inten    --     10.6260                14.1226                13.0411

                     61                     62                     63
                      A                      A                      A
 Frequencies --   1451.9825              1468.3383              1475.0548
 Red. masses --      1.3118                 1.4245                 1.3950
 Frc consts  --      1.6294                 1.8095                 1.7883
 IR Inten    --      9.4924               140.2824                52.4138

                     64                     65                     66
                      A                      A                      A
 Frequencies --   1507.8659              1546.7211              1750.8010
 Red. masses --      1.3550                 1.0911                 1.0849
 Frc consts  --      1.8151                 1.5379                 1.9594
 IR Inten    --      9.0176                 4.8096               213.1491

                     67                     68                     69
                      A                      A                      A
 Frequencies --   1761.4571              1817.2129              2962.2834
 Red. masses --      1.1165                 6.8374                 1.0827
 Frc consts  --      2.0410                13.3031                 5.5975
 IR Inten    --    165.4672               117.0878                26.2584

                     70                     71                     72
                      A                      A                      A
 Frequencies --   2971.3810              3019.5687              3023.4516
 Red. masses --      1.0806                 1.0871                 1.0626
 Frc consts  --      5.6212                 5.8402                 5.7233
 IR Inten    --     24.8452                54.8000                34.2393

                     73                     74                     75
                      A                      A                      A
 Frequencies --   3035.4410              3041.4995              3075.8071
 Red. masses --      1.0825                 1.0841                 1.1069
 Frc consts  --      5.8766                 5.9090                 6.1696
 IR Inten    --     26.4589                40.8459                56.0062

                     76                     77                     78
                      A                      A                      A
 Frequencies --   3212.8871              3340.8998              3615.2337
 Red. masses --      1.0666                 1.0668                 1.0660
 Frc consts  --      6.4872                 7.0154                 8.2087
 IR Inten    --    954.4790               702.1596               340.8453

                     79                     80                     81
                      A                      A                      A
 Frequencies --   3645.6688              3660.2507              3679.0195
 Red. masses --      1.0482                 1.0646                 1.0752
 Frc consts  --      8.2084                 8.4038                 8.5744
 IR Inten    --    214.0507                83.1067               146.7725

                     82                     83                     84
                      A                      A                      A
 Frequencies --   3690.8084              3771.9039              3802.5069
 Red. masses --      1.0661                 1.0668                 1.0665
 Frc consts  --      8.5564                 8.9422                 9.0851
 IR Inten    --     14.1076                29.5719                37.0499

 - Thermochemistry -
 -------------------
 Temperature   298.150 Kelvin.  Pressure   1.00000 Atm.
 Atom     1 has atomic number  1 and mass   1.00783

 Molecular mass:   216.08452 amu.
 Principal axes and moments of inertia in atomic units:
                           1         2         3
     Eigenvalues --  2134.064434251.593025030.66843
           X            0.99988   0.00592   0.01455
           Y           -0.00556   0.99969  -0.02444
           Z           -0.01469   0.02435   0.99960
 This molecule is an asymmetric top.
 Rotational symmetry number  1.
 Warning -- assumption of classical behavior for rotation
           may cause significant error
 Rotational temperatures (Kelvin)      0.04059     0.02037     0.01722
 Rotational constants (GHZ):           0.84568     0.42449     0.35875
 Zero-point vibrational energy     647657.9 (Joules/Mol)
                                  154.79395 (Kcal/Mol)
 Warning -- explicit consideration of  31 degrees of freedom as
           vibrations may cause significant error
 Vibrational temperatures:     56.83    78.33    90.65    99.83   109.50
          (Kelvin)            169.02   220.76   235.53   265.75   281.42
                              325.03   346.60   370.29   377.58   397.46
                              404.14   437.34   469.87   474.64   497.81
                              554.02   584.90   600.75   620.38   648.28
                              657.81   721.44   792.72   815.66   825.34
                              842.57   908.35  1089.09  1137.82  1228.38
                             1271.65  1306.40  1369.95  1425.14  1453.35
                             1500.27  1525.83  1568.67  1594.94  1605.58
                             1611.30  1649.35  1656.17  1763.71  1797.68
                             1821.94  1850.46  1879.55  1917.24  1930.53
                             1962.88  2011.81  2029.55  2042.43  2077.06
                             2089.08  2112.61  2122.27  2169.48  2225.38
                             2519.01  2534.34  2614.56  4262.06  4275.15
                             4344.48  4350.07  4367.32  4376.03  4425.39
                             4622.62  4806.80  5201.51  5245.30  5266.28
                             5293.28  5310.24  5426.92  5470.95

 Zero-point correction=                           0.246680 (Hartree/Particle)
 Thermal correction to Energy=                    0.264718
 Thermal correction to Enthalpy=                  0.265662
 Thermal correction to Gibbs Free Energy=         0.201492
 Sum of electronic and zero-point Energies=           -839.752389
 Sum of electronic and thermal Energies=              -839.734351
 Sum of electronic and thermal Enthalpies=            -839.733407
 Sum of electronic and thermal Free Energies=         -839.797577

                     E (Thermal)             CV                S
                      KCal/Mol        Cal/Mol-Kelvin    Cal/Mol-Kelvin
 Total                  166.113             65.798            135.057
 Electronic               0.000              0.000              0.000
 Translational            0.889              2.981             42.015
 Rotational               0.889              2.981             32.190
 Vibrational            164.335             59.836             60.852
 Vibration     1          0.594              1.981              5.284
 Vibration     2          0.596              1.976              4.649
 Vibration     3          0.597              1.972              4.361
 Vibration     4          0.598              1.969              4.171
 Vibration     5          0.599              1.965              3.989
 Vibration     6          0.608              1.935              3.142
 Vibration     7          0.619              1.899              2.629
 Vibration     8          0.623              1.887              2.507
 Vibration     9          0.631              1.861              2.280
 Vibration    10          0.636              1.846              2.174
 Vibration    11          0.650              1.802              1.911
 Vibration    12          0.658              1.778              1.796
 Vibration    13          0.667              1.750              1.680
 Vibration    14          0.670              1.742              1.646
 Vibration    15          0.678              1.717              1.557
 Vibration    16          0.681              1.709              1.528
 Vibration    17          0.695              1.666              1.395
 Vibration    18          0.710              1.622              1.277
 Vibration    19          0.713              1.616              1.261
 Vibration    20          0.724              1.583              1.184
 Vibration    21          0.754              1.502              1.019
 Vibration    22          0.771              1.456              0.939
 Vibration    23          0.781              1.432              0.900
 Vibration    24          0.792              1.402              0.855
 Vibration    25          0.809              1.360              0.794
 Vibration    26          0.815              1.345              0.774
 Vibration    27          0.857              1.247              0.655
 Vibration    28          0.906              1.138              0.542
 Vibration    29          0.923              1.103              0.510
 Vibration    30          0.930              1.088              0.497
 Vibration    31          0.943              1.062              0.475

 Normal termination of Gaussian 09 at Sun Jan 15 23:00:39 2017.
