 Gaussian 09, Revision D.01,
 Gaussian 09:  AM64L-G09RevD.01 24-Apr-2013

 ----------------------------------------------------------------------
 # opt=(TS, CalcFC, NoEigenTest, MaxCycle=1000, cartesian) Freq B3LYP/6
 -31G(d)
 ----------------------------------------------------------------------

 --------------------------
 glo_1w_ALPHA_B3LYP_6-31G_d
 --------------------------
 Symbolic Z-matrix:
 Charge =  0 Multiplicity = 1

 SCF Done:  E(RB3LYP) =  -839.930105935     A.U. after   14 cycles
 SCF Done:  E(RB3LYP) =  -839.940246148     A.U. after   11 cycles
 SCF Done:  E(RB3LYP) =  -839.947024447     A.U. after   11 cycles
 SCF Done:  E(RB3LYP) =  -839.951332939     A.U. after   11 cycles
 SCF Done:  E(RB3LYP) =  -839.954307278     A.U. after   11 cycles
 SCF Done:  E(RB3LYP) =  -839.956145909     A.U. after   11 cycles
 SCF Done:  E(RB3LYP) =  -839.957078778     A.U. after   12 cycles
 SCF Done:  E(RB3LYP) =  -839.957789906     A.U. after   11 cycles
 SCF Done:  E(RB3LYP) =  -839.958046395     A.U. after   11 cycles
 SCF Done:  E(RB3LYP) =  -839.958305339     A.U. after   11 cycles
 SCF Done:  E(RB3LYP) =  -839.959671434     A.U. after    9 cycles
 SCF Done:  E(RB3LYP) =  -839.959673176     A.U. after    8 cycles
 SCF Done:  E(RB3LYP) =  -839.959673847     A.U. after    8 cycles
 SCF Done:  E(RB3LYP) =  -839.959674026     A.U. after    8 cycles
 SCF Done:  E(RB3LYP) =  -839.959670270     A.U. after    9 cycles
 SCF Done:  E(RB3LYP) =  -839.959673758     A.U. after    9 cycles
 SCF Done:  E(RB3LYP) =  -839.959674084     A.U. after    7 cycles
 SCF Done:  E(RB3LYP) =  -839.959674896     A.U. after    9 cycles
 SCF Done:  E(RB3LYP) =  -839.959674833     A.U. after    9 cycles
 Optimization completed.
    -- Stationary point found.
 Normal termination of Gaussian 09 at Wed Jun  8 17:05:32 2016.

 --------------------------------------------------------------------
 #N Geom=AllCheck Guess=TCheck SCRF=Check GenChk RB3LYP/6-31G(d) Freq
 --------------------------------------------------------------------

 Structure from the checkpoint file:  "/home/iawad/scratch/MAIN/PRO_Halides/direct/TsF/glo_1w_ALPHA/glo_1w_ALPHA_TsF_B3LYP_6-31G_d.chk"
 --------------------------
 glo_1w_ALPHA_B3LYP_6-31G_d
 --------------------------
 Charge =  0 Multiplicity = 1

                         Standard orientation:
 ---------------------------------------------------------------------
 Center     Atomic      Atomic             Coordinates (Angstroms)
 Number     Number       Type             X           Y           Z
 ---------------------------------------------------------------------
      1          6           0       -1.436317   -1.530034   -0.137164
      2          8           0       -1.637498    0.129392   -0.764188
      3          1           0       -4.325354   -0.326323    0.407001
      4          8           0       -3.496205    0.046347    0.747937
      5          1           0       -2.689949    0.235528   -0.161193
      6          6           0       -0.015179   -1.815960   -0.594980
      7          6           0        0.992182   -0.845515    0.032904
      8          6           0        0.711040    0.603844   -0.390781
      9          6           0       -0.737224    1.044703   -0.120128
     10          1           0        0.017100   -1.681865   -1.688724
     11          1           0        0.939034    0.705635   -1.456927
     12          1           0       -0.911639    1.027967    0.967461
     13          1           0        0.903015   -0.925420    1.127863
     14          8           0        0.301175   -3.147336   -0.243729
     15          8           0        2.258415   -1.300581   -0.414527
     16          8           0        1.622798    1.526519    0.264825
     17          1           0        2.969845   -0.878184    0.119761
     18          1           0        1.272463   -3.189447   -0.314178
     19          1           0        1.385456    1.541706    1.209573
     20          6           0       -1.053025    2.458518   -0.637927
     21          8           0       -0.372165    3.472930    0.078277
     22          1           0       -2.122792    2.645685   -0.501980
     23          1           0       -0.842076    2.499143   -1.718906
     24          1           0        0.576929    3.290959   -0.026607
     25          1           0       -2.201271   -1.931935   -0.820788
     26          8           0       -1.703607   -1.488579    1.120776
     27          1           0       -2.800632   -0.813184    1.132779
     28          8           0        4.124785    0.368681    0.744692
     29          1           0        4.829862    0.429178    0.081758
     30          1           0        3.449569    1.018238    0.459047
 ---------------------------------------------------------------------

 SCF Done:  E(RB3LYP) =  -839.959674833     A.U. after    1 cycles

 The electronic state is 1-A.
 Alpha  occ. eigenvalues --  -19.20125 -19.17852 -19.16997 -19.16485 -19.14521
 Alpha  occ. eigenvalues --  -19.14473 -19.13916 -19.13049 -10.29359 -10.26091
 Alpha  occ. eigenvalues --  -10.25424 -10.24470 -10.24100 -10.23916  -1.07274
 Alpha  occ. eigenvalues --   -1.06343  -1.03460  -1.02266  -1.01999  -1.00799
 Alpha  occ. eigenvalues --   -1.00551  -0.99797  -0.79037  -0.75755  -0.69417
 Alpha  occ. eigenvalues --   -0.64998  -0.62556  -0.57909  -0.57074  -0.55029
 Alpha  occ. eigenvalues --   -0.54325  -0.53439  -0.51706  -0.50139  -0.49803
 Alpha  occ. eigenvalues --   -0.48219  -0.47574  -0.44941  -0.43943  -0.43324
 Alpha  occ. eigenvalues --   -0.42483  -0.41564  -0.40481  -0.39939  -0.38220
 Alpha  occ. eigenvalues --   -0.37614  -0.36192  -0.35704  -0.35568  -0.33930
 Alpha  occ. eigenvalues --   -0.32143  -0.31540  -0.30046  -0.28908  -0.27693
 Alpha  occ. eigenvalues --   -0.26864  -0.26244  -0.25870
 Alpha virt. eigenvalues --    0.01674   0.03209   0.05640   0.07041   0.08746
 Alpha virt. eigenvalues --    0.10479   0.11290   0.12321   0.13367   0.14161
 Alpha virt. eigenvalues --    0.15235   0.16076   0.17279   0.17625   0.18256

 Mulliken charges:
               1
     1  C    0.279833
     2  O   -0.639366
     3  H    0.407933
     4  O   -0.827401
     5  H    0.467533
     6  C    0.158016
     7  C    0.077928
     8  C    0.098793
     9  C    0.094900
    10  H    0.123267
    11  H    0.158368
    12  H    0.144698
    13  H    0.140499
    14  O   -0.644330
    15  O   -0.692349
    16  O   -0.655873
    17  H    0.427707
    18  H    0.413252
    19  H    0.412999
    20  C   -0.041056
    21  O   -0.629463
    22  H    0.159882
    23  H    0.128894
    24  H    0.403406
    25  H    0.130384
    26  O   -0.589934
    27  H    0.466671
    28  O   -0.797944
    29  H    0.402299
    30  H    0.420455
 Sum of Mulliken charges =   0.00000

 Dipole moment (field-independent basis, Debye):
    X=              0.5672    Y=              1.3630    Z=             -2.1351  Tot=              2.5957
 Quadrupole moment (field-independent basis, Debye-Ang):
   XX=            -65.3283   YY=            -99.3405   ZZ=            -86.5395
   XY=              7.3473   XZ=              0.5808   YZ=              0.9415

  Exact polarizability: 114.522  -0.004 103.902  -1.114   0.072  78.488
 Approx polarizability: 143.997  -0.135 138.332  -2.023  -2.459 130.457

 ******    1 imaginary frequencies (negative Signs) ******

                      1                      2                      3
                      A                      A                      A
 Frequencies --  -1470.7727                38.1139                66.2700
 Red. masses --      1.1147                 5.8370                 6.3454
 Frc consts  --      1.4207                 0.0050                 0.0164
 IR Inten    --    222.2625                 2.3020                 3.9146

                      4                      5                      6
                      A                      A                      A
 Frequencies --     90.5607               104.9531               136.5049
 Red. masses --      5.3334                 6.2350                 5.9806
 Frc consts  --      0.0258                 0.0405                 0.0657
 IR Inten    --      1.5401                 1.5777                 2.1094

                      7                      8                      9
                      A                      A                      A
 Frequencies --    137.5592               162.0966               179.7983
 Red. masses --      5.4163                 2.7965                 4.6333
 Frc consts  --      0.0604                 0.0433                 0.0882
 IR Inten    --      2.2817                12.4393                12.0187

                     10                     11                     12
                      A                      A                      A
 Frequencies --    190.4394               219.9825               242.2276
 Red. masses --      4.3028                 5.0171                 1.2839
 Frc consts  --      0.0919                 0.1430                 0.0444
 IR Inten    --     26.4875                 1.5350               201.4350

                     13                     14                     15
                      A                      A                      A
 Frequencies --    269.0296               291.9138               315.5993
 Red. masses --      6.2410                 3.9649                 2.0748
 Frc consts  --      0.2661                 0.1991                 0.1218
 IR Inten    --     18.9311                21.9178                83.9969

                     16                     17                     18
                      A                      A                      A
 Frequencies --    323.4122               357.5696               378.6899
 Red. masses --      3.7935                 3.5395                 3.5415
 Frc consts  --      0.2338                 0.2666                 0.2992
 IR Inten    --     36.8708                84.8030                57.9089

                     19                     20                     21
                      A                      A                      A
 Frequencies --    407.7644               444.4597               447.0420
 Red. masses --      2.9214                 2.2009                 1.9689
 Frc consts  --      0.2862                 0.2562                 0.2318
 IR Inten    --     93.9133                26.0757                 8.3593

                     22                     23                     24
                      A                      A                      A
 Frequencies --    473.0701               488.6767               508.9102
 Red. masses --      1.3184                 3.4133                 2.9838
 Frc consts  --      0.1738                 0.4803                 0.4553
 IR Inten    --    100.1684               110.6661                56.5994

                     25                     26                     27
                      A                      A                      A
 Frequencies --    515.0272               547.3434               577.0253
 Red. masses --      3.6460                 1.5586                 2.3485
 Frc consts  --      0.5698                 0.2751                 0.4607
 IR Inten    --     41.1685                43.7316                18.5078

                     28                     29                     30
                      A                      A                      A
 Frequencies --    594.2203               606.0320               641.1811
 Red. masses --      1.3031                 2.4544                 1.1832
 Frc consts  --      0.2711                 0.5311                 0.2866
 IR Inten    --     61.6390               140.5166               101.8305

                     31                     32                     33
                      A                      A                      A
 Frequencies --    662.5326               687.9028               720.4398
 Red. masses --      1.5001                 6.1634                 2.2750
 Frc consts  --      0.3879                 1.7184                 0.6957
 IR Inten    --     48.3253                40.6529               188.3611

                     34                     35                     36
                      A                      A                      A
 Frequencies --    774.1182               865.2279               909.3869
 Red. masses --      4.2915                 1.0776                 1.7041
 Frc consts  --      1.5152                 0.4753                 0.8303
 IR Inten    --     38.0226               110.9069                48.9620

                     37                     38                     39
                      A                      A                      A
 Frequencies --    954.6754              1006.3024              1017.4073
 Red. masses --      3.1893                 4.3415                 3.8670
 Frc consts  --      1.7126                 2.5903                 2.3584
 IR Inten    --     35.1703               110.3196               162.7868

                     40                     41                     42
                      A                      A                      A
 Frequencies --   1043.0399              1088.8394              1095.1549
 Red. masses --      4.3229                 2.4566                 4.4301
 Frc consts  --      2.7710                 1.7160                 3.1305
 IR Inten    --     35.2861                48.0144               107.5103

                     43                     44                     45
                      A                      A                      A
 Frequencies --   1111.4563              1116.8089              1130.9898
 Red. masses --      3.7312                 2.3631                 4.0656
 Frc consts  --      2.7157                 1.7365                 3.0640
 IR Inten    --    281.2341               142.8180                 4.4156

                     46                     47                     48
                      A                      A                      A
 Frequencies --   1138.6997              1210.0537              1213.7355
 Red. masses --      2.6304                 1.2934                 1.2079
 Frc consts  --      2.0095                 1.1158                 1.0484
 IR Inten    --     16.7608               256.5695               134.1247

                     49                     50                     51
                      A                      A                      A
 Frequencies --   1236.4143              1274.1644              1282.1001
 Red. masses --      1.3153                 1.2397                 1.1806
 Frc consts  --      1.1847                 1.1858                 1.1434
 IR Inten    --    141.0136               431.0582              1598.5391

                     52                     53                     54
                      A                      A                      A
 Frequencies --   1298.3848              1303.1222              1350.8125
 Red. masses --      1.2364                 1.1582                 1.2468
 Frc consts  --      1.2280                 1.1588                 1.3404
 IR Inten    --    189.7968                56.9689               144.8035

                     55                     56                     57
                      A                      A                      A
 Frequencies --   1371.8377              1402.7597              1405.9870
 Red. masses --      1.4336                 1.2802                 1.2903
 Frc consts  --      1.5895                 1.4843                 1.5028
 IR Inten    --    297.1518                45.1156                 7.5044

                     58                     59                     60
                      A                      A                      A
 Frequencies --   1413.5468              1435.4638              1443.7429
 Red. masses --      1.3453                 1.2080                 1.1673
 Frc consts  --      1.5838                 1.4666                 1.4335
 IR Inten    --     22.8515                40.5979                98.8781

                     61                     62                     63
                      A                      A                      A
 Frequencies --   1449.9220              1469.3656              1474.8421
 Red. masses --      1.3025                 1.2961                 1.5566
 Frc consts  --      1.6134                 1.6488                 1.9949
 IR Inten    --    328.4382                94.7883               172.0961

                     64                     65                     66
                      A                      A                      A
 Frequencies --   1493.9658              1533.9432              1577.8061
 Red. masses --      1.2597                 1.0941                 1.1009
 Frc consts  --      1.6565                 1.5168                 1.6148
 IR Inten    --    142.3472                16.6119               151.8076

                     67                     68                     69
                      A                      A                      A
 Frequencies --   1600.5755              1691.3787              1719.3877
 Red. masses --      2.3079                 1.0913                 1.0757
 Frc consts  --      3.4835                 1.8394                 1.8737
 IR Inten    --    234.9241               176.0744                64.1298

                     70                     71                     72
                      A                      A                      A
 Frequencies --   1881.6836              2989.8181              2999.1960
 Red. masses --      1.0259                 1.0820                 1.0728
 Frc consts  --      2.1402                 5.6984                 5.6854
 IR Inten    --     36.5423                18.9863                27.6428

                     73                     74                     75
                      A                      A                      A
 Frequencies --   3011.3030              3013.7867              3019.3565
 Red. masses --      1.0870                 1.0821                 1.0847
 Frc consts  --      5.8073                 5.7906                 5.8265
 IR Inten    --     78.9205                 5.2733                94.9297

                     76                     77                     78
                      A                      A                      A
 Frequencies --   3096.5878              3108.4311              3469.6443
 Red. masses --      1.0865                 1.0948                 1.0678
 Frc consts  --      6.1385                 6.2326                 7.5739
 IR Inten    --     23.0812                33.3393               472.1355

                     79                     80                     81
                      A                      A                      A
 Frequencies --   3599.2765              3681.6062              3692.9658
 Red. masses --      1.0554                 1.0647                 1.0657
 Frc consts  --      8.0552                 8.5027                 8.5628
 IR Inten    --    432.6258                53.0398                28.5745

                     82                     83                     84
                      A                      A                      A
 Frequencies --   3710.3775              3771.1119              3799.3487
 Red. masses --      1.0655                 1.0654                 1.0727
 Frc consts  --      8.6422                 8.9269                 9.1234
 IR Inten    --     59.1871                43.9040                90.3481

 - Thermochemistry -
 -------------------
 Temperature   298.150 Kelvin.  Pressure   1.00000 Atm.
 Atom     1 has atomic number  6 and mass  12.00000

 Molecular mass:   216.08452 amu.
 Principal axes and moments of inertia in atomic units:
                           1         2         3
     Eigenvalues --  2665.978933284.744225393.80540
           X            0.99996   0.00810   0.00279
           Y           -0.00810   0.99997  -0.00034
           Z           -0.00279   0.00032   1.00000
 This molecule is an asymmetric top.
 Rotational symmetry number  1.
 Warning -- assumption of classical behavior for rotation
           may cause significant error
 Rotational temperatures (Kelvin)      0.03249     0.02637     0.01606
 Rotational constants (GHZ):           0.67695     0.54943     0.33460
    1 imaginary frequencies ignored.
 Zero-point vibrational energy     637467.6 (Joules/Mol)
                                  152.35841 (Kcal/Mol)
 Warning -- explicit consideration of  28 degrees of freedom as
           vibrations may cause significant error
 Vibrational temperatures:     54.84    95.35   130.30   151.00   196.40
          (Kelvin)            197.92   233.22   258.69   274.00   316.51
                              348.51   387.07   420.00   454.08   465.32
                              514.46   544.85   586.68   639.48   643.19
                              680.64   703.10   732.21   741.01   787.50
                              830.21   854.95   871.94   922.52   953.24
                              989.74  1036.55  1113.78  1244.87  1308.40
                             1373.56  1447.84  1463.82  1500.70  1566.60
                             1575.68  1599.14  1606.84  1627.24  1638.33
                             1741.00  1746.29  1778.92  1833.24  1844.65
                             1868.08  1874.90  1943.52  1973.77  2018.26
                             2022.90  2033.78  2065.31  2077.22  2086.11
                             2114.09  2121.97  2149.48  2207.00  2270.11
                             2302.87  2433.51  2473.81  2707.32  4301.68
                             4315.17  4332.59  4336.16  4344.18  4455.29
                             4472.33  4992.04  5178.55  5297.00  5313.35
                             5338.40  5425.78  5466.41

 Zero-point correction=                           0.242799 (Hartree/Particle)
 Thermal correction to Energy=                    0.258878
 Thermal correction to Enthalpy=                  0.259823
 Thermal correction to Gibbs Free Energy=         0.200219
 Sum of electronic and zero-point Energies=           -839.716876
 Sum of electronic and thermal Energies=              -839.700796
 Sum of electronic and thermal Enthalpies=            -839.699852
 Sum of electronic and thermal Free Energies=         -839.759456

                     E (Thermal)             CV                S
                      KCal/Mol        Cal/Mol-Kelvin    Cal/Mol-Kelvin
 Total                  162.449             60.976            125.446
 Electronic               0.000              0.000              0.000
 Translational            0.889              2.981             42.015
 Rotational               0.889              2.981             32.224
 Vibrational            160.671             55.014             51.207
 Vibration     1          0.594              1.982              5.355
 Vibration     2          0.598              1.970              4.261
 Vibration     3          0.602              1.956              3.648
 Vibration     4          0.605              1.945              3.360
 Vibration     5          0.614              1.917              2.852
 Vibration     6          0.614              1.916              2.838
 Vibration     7          0.622              1.889              2.525
 Vibration     8          0.629              1.867              2.331
 Vibration     9          0.634              1.853              2.224
 Vibration    10          0.647              1.811              1.959
 Vibration    11          0.658              1.776              1.786
 Vibration    12          0.673              1.730              1.602
 Vibration    13          0.687              1.689              1.463
 Vibration    14          0.703              1.644              1.333
 Vibration    15          0.708              1.629              1.293
 Vibration    16          0.733              1.560              1.133
 Vibration    17          0.749              1.516              1.044
 Vibration    18          0.772              1.453              0.935
 Vibration    19          0.804              1.373              0.813
 Vibration    20          0.806              1.367              0.805
 Vibration    21          0.830              1.310              0.729
 Vibration    22          0.845              1.275              0.687
 Vibration    23          0.864              1.230              0.636
 Vibration    24          0.870              1.217              0.622
 Vibration    25          0.903              1.146              0.550
 Vibration    26          0.933              1.081              0.491
 Vibration    27          0.952              1.044              0.460
 Vibration    28          0.965              1.019              0.439

 Normal termination of Gaussian 09 at Wed Jun  8 17:19:24 2016.
