 Gaussian 09, Revision E.01,
 Gaussian 09:  ES64L-G09RevE.01 30-Nov-2015

 ----------------------------------------------------------------------
 # opt=(calcfc,ts,noeigentest,maxcycle=1000,cartesian) freq b3lyp/6-31g
 (d)
 ----------------------------------------------------------------------

 -------------------------
 boat6_Alpha_B3LYP_6-31G_d
 -------------------------
 Symbolic Z-matrix:
 Charge =  0 Multiplicity = 1

 SCF Done:  E(RB3LYP) =  -839.978243149     A.U. after   14 cycles
 SCF Done:  E(RB3LYP) =  -839.979402700     A.U. after   11 cycles
 SCF Done:  E(RB3LYP) =  -839.979959807     A.U. after   11 cycles
 SCF Done:  E(RB3LYP) =  -839.980415812     A.U. after   11 cycles
 SCF Done:  E(RB3LYP) =  -839.980819866     A.U. after   11 cycles
 SCF Done:  E(RB3LYP) =  -839.981158939     A.U. after   11 cycles
 SCF Done:  E(RB3LYP) =  -839.981436663     A.U. after   11 cycles
 SCF Done:  E(RB3LYP) =  -839.981601249     A.U. after   11 cycles
 SCF Done:  E(RB3LYP) =  -839.981738775     A.U. after   11 cycles
 SCF Done:  E(RB3LYP) =  -839.981918253     A.U. after   11 cycles
 SCF Done:  E(RB3LYP) =  -839.982550169     A.U. after    8 cycles
 SCF Done:  E(RB3LYP) =  -839.982547187     A.U. after    9 cycles
 SCF Done:  E(RB3LYP) =  -839.982463623     A.U. after   11 cycles
 SCF Done:  E(RB3LYP) =  -839.982546557     A.U. after   11 cycles
 SCF Done:  E(RB3LYP) =  -839.982549677     A.U. after    9 cycles
 SCF Done:  E(RB3LYP) =  -839.982549952     A.U. after    7 cycles
 SCF Done:  E(RB3LYP) =  -839.982549079     A.U. after    8 cycles
 SCF Done:  E(RB3LYP) =  -839.982549773     A.U. after    8 cycles
 SCF Done:  E(RB3LYP) =  -839.982550016     A.U. after    7 cycles
 Optimization completed.
    -- Stationary point found.
 Normal termination of Gaussian 09 at Thu Jan 12 21:50:25 2017.

 --------------------------------------------------------------------
 #N Geom=AllCheck Guess=TCheck SCRF=Check GenChk RB3LYP/6-31G(d) Freq
 --------------------------------------------------------------------

 Structure from the checkpoint file:  "/scratch/10457014.yak.local/Gau-11714.chk"
 -------------------------
 boat6_Alpha_B3LYP_6-31G_d
 -------------------------
 Charge =  0 Multiplicity = 1

                         Standard orientation:
 ---------------------------------------------------------------------
 Center     Atomic      Atomic             Coordinates (Angstroms)
 Number     Number       Type             X           Y           Z
 ---------------------------------------------------------------------
      1          6           0       -0.145029    0.979851   -0.201387
      2          6           0       -2.206143   -0.257173    0.611724
      3          6           0       -1.695840    1.018616   -0.097932
      4          6           0       -1.469578   -1.492209    0.071482
      5          1           0       -1.890162   -2.398973    0.531391
      6          1           0       -3.274953   -0.346202    0.394590
      7          1           0        0.124012    0.569181   -1.181778
      8          1           0       -2.015512    1.873426    0.511478
      9          6           0        0.058405   -1.468477    0.386821
     10          8           0        0.370104    0.102891    0.816460
     11          6           0        0.438803    2.376861   -0.095132
     12          1           0       -0.150246    3.029560   -0.750584
     13          1           0        0.362456    2.743011    0.938397
     14          8           0        1.818897    2.383490   -0.531127
     15          1           0        2.133442    3.300619   -0.522555
     16          8           0       -1.626458   -1.535957   -1.343777
     17          1           0       -0.725186   -1.808882   -1.645714
     18          8           0       -2.090039   -0.166606    2.025874
     19          1           0       -1.148184    0.014060    2.192107
     20          8           0       -2.268197    1.199271   -1.380984
     21          1           0       -2.170790    0.325706   -1.811939
     22          8           0        3.282171   -1.730674   -0.330251
     23          1           0        2.259962   -1.914382   -0.465321
     24          1           0        3.173787   -0.499572    0.312849
     25          1           0        3.651369   -1.656204   -1.224151
     26          8           0        0.778963   -1.833504   -0.630904
     27          1           0        0.298838   -1.898955    1.370857
     28          8           0        2.844981    0.372991    0.878903
     29          1           0        2.818481    1.173343    0.290728
     30          1           0        1.785609    0.214245    0.972629
 ---------------------------------------------------------------------

 SCF Done:  E(RB3LYP) =  -839.982550016     A.U. after    1 cycles

 The electronic state is 1-A.
 Alpha  occ. eigenvalues --  -19.20964 -19.20054 -19.16840 -19.16787 -19.13674
 Alpha  occ. eigenvalues --  -19.13285 -19.12966 -19.10551 -10.27816 -10.26302
 Alpha  occ. eigenvalues --  -10.24533 -10.23179 -10.22627 -10.22585  -1.08726
 Alpha  occ. eigenvalues --   -1.06081  -1.04542  -1.02192  -1.00972  -1.00945
 Alpha  occ. eigenvalues --   -1.00177  -0.96631  -0.77745  -0.74690  -0.68688
 Alpha  occ. eigenvalues --   -0.63441  -0.61547  -0.58995  -0.56528  -0.55735
 Alpha  occ. eigenvalues --   -0.54713  -0.53910  -0.52552  -0.50909  -0.49741
 Alpha  occ. eigenvalues --   -0.47343  -0.45821  -0.45555  -0.44754  -0.42720
 Alpha  occ. eigenvalues --   -0.42287  -0.41063  -0.40778  -0.39450  -0.38284
 Alpha  occ. eigenvalues --   -0.37944  -0.36940  -0.34947  -0.33994  -0.33190
 Alpha  occ. eigenvalues --   -0.32113  -0.31585  -0.30087  -0.28351  -0.26475
 Alpha  occ. eigenvalues --   -0.25531  -0.24899  -0.23747
 Alpha virt. eigenvalues --    0.02687   0.06085   0.07154   0.09100   0.10148
 Alpha virt. eigenvalues --    0.11703   0.12418   0.13153   0.14425   0.14887
 Alpha virt. eigenvalues --    0.15070   0.15948   0.16702   0.18634   0.19642

 Mulliken charges:
               1
     1  C    0.137839
     2  C    0.106837
     3  C    0.086448
     4  C    0.078914
     5  H    0.139557
     6  H    0.155151
     7  H    0.151583
     8  H    0.137341
     9  C    0.339650
    10  O   -0.653998
    11  C   -0.089708
    12  H    0.175928
    13  H    0.149504
    14  O   -0.651195
    15  H    0.416503
    16  O   -0.675503
    17  H    0.419310
    18  O   -0.646358
    19  H    0.402958
    20  O   -0.653846
    21  H    0.417377
    22  O   -0.826785
    23  H    0.454656
    24  H    0.465334
    25  H    0.405822
    26  O   -0.666809
    27  H    0.119826
    28  O   -0.818894
    29  H    0.447182
    30  H    0.475375
 Sum of Mulliken charges =  -0.00000

 Dipole moment (field-independent basis, Debye):
    X=              5.1224    Y=              3.7731    Z=             -0.8429  Tot=              6.4176
 Quadrupole moment (field-independent basis, Debye-Ang):
   XX=            -86.6580   YY=            -75.5144   ZZ=            -87.7469
   XY=              9.0345   XZ=             -6.3518   YZ=              1.6656

  Exact polarizability: 107.391  -0.038  99.944  -2.366   0.602  84.874
 Approx polarizability: 138.858  -2.764 132.923  -2.003   4.322 134.662

 ******    1 imaginary frequencies (negative Signs) ******

                      1                      2                      3
                      A                      A                      A
 Frequencies --   -300.4627                51.5990                76.4741
 Red. masses --      3.4160                 5.7433                 4.9302
 Frc consts  --      0.1817                 0.0090                 0.0170
 IR Inten    --     30.8311                 3.0457                 3.0244

                      4                      5                      6
                      A                      A                      A
 Frequencies --     89.6944               126.9685               138.1225
 Red. masses --      6.5205                 7.9501                 5.4560
 Frc consts  --      0.0309                 0.0755                 0.0613
 IR Inten    --      1.4595                 2.3892                 2.9269

                      7                      8                      9
                      A                      A                      A
 Frequencies --    190.3084               214.5117               235.4189
 Red. masses --      4.5474                 3.4628                 5.1437
 Frc consts  --      0.0970                 0.0939                 0.1680
 IR Inten    --      0.4292                14.1110                 7.5778

                     10                     11                     12
                      A                      A                      A
 Frequencies --    246.5097               254.2827               277.2233
 Red. masses --      6.0616                 5.3777                 3.7224
 Frc consts  --      0.2170                 0.2049                 0.1686
 IR Inten    --      7.2831                15.5706                28.9408

                     13                     14                     15
                      A                      A                      A
 Frequencies --    315.2282               344.4408               350.8385
 Red. masses --      4.9116                 4.7700                 1.4741
 Frc consts  --      0.2876                 0.3334                 0.1069
 IR Inten    --     13.1345                53.8533                62.3315

                     16                     17                     18
                      A                      A                      A
 Frequencies --    372.8870               401.0122               430.1935
 Red. masses --      4.6216                 4.3369                 1.9275
 Frc consts  --      0.3786                 0.4109                 0.2102
 IR Inten    --     62.2617                53.2242               166.8369

                     19                     20                     21
                      A                      A                      A
 Frequencies --    453.3129               471.4821               483.6890
 Red. masses --      3.0853                 4.0276                 2.5757
 Frc consts  --      0.3735                 0.5275                 0.3550
 IR Inten    --     40.0992                 8.6028                24.8420

                     22                     23                     24
                      A                      A                      A
 Frequencies --    524.9474               554.2964               571.2305
 Red. masses --      4.9944                 3.2386                 2.6396
 Frc consts  --      0.8109                 0.5863                 0.5075
 IR Inten    --     12.7212                67.8436               108.8592

                     25                     26                     27
                      A                      A                      A
 Frequencies --    596.5250               611.5591               615.1249
 Red. masses --      1.9346                 1.3187                 1.6544
 Frc consts  --      0.4056                 0.2906                 0.3688
 IR Inten    --      6.1575                59.4588                74.5653

                     28                     29                     30
                      A                      A                      A
 Frequencies --    629.3784               706.9864               746.1995
 Red. masses --      1.2167                 3.7642                 1.1014
 Frc consts  --      0.2840                 1.1085                 0.3613
 IR Inten    --     31.7473                14.4949               180.1797

                     31                     32                     33
                      A                      A                      A
 Frequencies --    779.6094               834.9773               843.4340
 Red. masses --      1.2133                 1.5623                 2.3551
 Frc consts  --      0.4345                 0.6417                 0.9871
 IR Inten    --     61.1561                42.9491                11.3057

                     34                     35                     36
                      A                      A                      A
 Frequencies --    855.4405               901.8971               912.1008
 Red. masses --      2.2890                 3.0162                 2.7871
 Frc consts  --      0.9869                 1.4455                 1.3661
 IR Inten    --     29.7397                92.8418                12.3380

                     37                     38                     39
                      A                      A                      A
 Frequencies --    960.3046              1016.1562              1046.1371
 Red. masses --      1.0837                 4.4421                 2.6197
 Frc consts  --      0.5888                 2.7025                 1.6892
 IR Inten    --    194.9674                22.1482                48.1770

                     40                     41                     42
                      A                      A                      A
 Frequencies --   1080.7805              1092.1917              1101.3433
 Red. masses --      3.1060                 3.4723                 4.0290
 Frc consts  --      2.1376                 2.4405                 2.8793
 IR Inten    --    181.0562                60.9475                55.2861

                     43                     44                     45
                      A                      A                      A
 Frequencies --   1111.3823              1129.1748              1135.0774
 Red. masses --      4.2324                 1.5019                 1.7288
 Frc consts  --      3.0801                 1.1283                 1.3123
 IR Inten    --     45.6778                42.2364                22.3718

                     46                     47                     48
                      A                      A                      A
 Frequencies --   1143.5142              1226.6490              1246.2705
 Red. masses --      2.2716                 1.2339                 1.2558
 Frc consts  --      1.7501                 1.0939                 1.1492
 IR Inten    --      7.3201                18.7584                83.7026

                     49                     50                     51
                      A                      A                      A
 Frequencies --   1270.6142              1283.6071              1292.0846
 Red. masses --      1.2632                 1.2538                 1.4892
 Frc consts  --      1.2016                 1.2172                 1.4649
 IR Inten    --      0.0533                10.6524                32.3608

                     52                     53                     54
                      A                      A                      A
 Frequencies --   1303.3442              1326.7467              1346.1389
 Red. masses --      1.2991                 1.2616                 1.2315
 Frc consts  --      1.3002                 1.3084                 1.3148
 IR Inten    --      4.6413                24.4968                21.6786

                     55                     56                     57
                      A                      A                      A
 Frequencies --   1353.5854              1378.6491              1390.5344
 Red. masses --      1.2691                 1.4775                 1.2377
 Frc consts  --      1.3700                 1.6546                 1.4100
 IR Inten    --     19.0370                22.9867               138.0583

                     58                     59                     60
                      A                      A                      A
 Frequencies --   1411.6936              1428.4462              1450.3736
 Red. masses --      1.4904                 1.6964                 1.2240
 Frc consts  --      1.7500                 2.0394                 1.5170
 IR Inten    --     12.0080                85.1452               234.5665

                     61                     62                     63
                      A                      A                      A
 Frequencies --   1463.6593              1477.4201              1482.0753
 Red. masses --      1.4245                 1.3285                 1.2787
 Frc consts  --      1.7980                 1.7085                 1.6548
 IR Inten    --     61.9601               481.5543               119.6950

                     64                     65                     66
                      A                      A                      A
 Frequencies --   1485.2896              1527.1691              1648.5095
 Red. masses --      1.1623                 1.0841                 1.2896
 Frc consts  --      1.5107                 1.4897                 2.0649
 IR Inten    --     71.9470                 4.2620              1051.1806

                     67                     68                     69
                      A                      A                      A
 Frequencies --   1756.3670              1785.8750              1931.0265
 Red. masses --      1.0515                 1.1083                 1.0365
 Frc consts  --      1.9111                 2.0826                 2.2772
 IR Inten    --     35.8803               648.0877               189.4696

                     70                     71                     72
                      A                      A                      A
 Frequencies --   2223.9207              2513.8289              3007.7792
 Red. masses --      1.0644                 1.0763                 1.0867
 Frc consts  --      3.1018                 4.0071                 5.7924
 IR Inten    --   2063.6193              2889.4785                35.3551

                     73                     74                     75
                      A                      A                      A
 Frequencies --   3026.4419              3032.3126              3054.4829
 Red. masses --      1.0868                 1.0606                 1.0855
 Frc consts  --      5.8647                 5.7460                 5.9668
 IR Inten    --    105.0925                21.2943                31.7646

                     76                     77                     78
                      A                      A                      A
 Frequencies --   3072.5875              3094.6349              3100.2257
 Red. masses --      1.0841                 1.1052                 1.0874
 Frc consts  --      6.0303                 6.2358                 6.1580
 IR Inten    --     20.2533                24.3645                27.9716

                     79                     80                     81
                      A                      A                      A
 Frequencies --   3401.4492              3429.3870              3607.1214
 Red. masses --      1.0610                 1.0637                 1.0651
 Frc consts  --      7.2326                 7.3703                 8.1650
 IR Inten    --    445.8128               172.8233               110.5490

                     82                     83                     84
                      A                      A                      A
 Frequencies --   3691.6481              3758.2208              3784.3421
 Red. masses --      1.0648                 1.0665                 1.0649
 Frc consts  --      8.5499                 8.8749                 8.9854
 IR Inten    --     52.8604                37.7203                45.0632

 - Thermochemistry -
 -------------------
 Temperature   298.150 Kelvin.  Pressure   1.00000 Atm.
 Atom     1 has atomic number  6 and mass  12.00000

 Molecular mass:   216.08452 amu.
 Principal axes and moments of inertia in atomic units:
                           1         2         3
     Eigenvalues --  2289.838593355.013744307.86156
           X            0.99998   0.00452  -0.00541
           Y           -0.00451   0.99999   0.00213
           Z            0.00542  -0.00210   0.99998
 This molecule is an asymmetric top.
 Rotational symmetry number  1.
 Warning -- assumption of classical behavior for rotation
           may cause significant error
 Rotational temperatures (Kelvin)      0.03783     0.02582     0.02011
 Rotational constants (GHZ):           0.78815     0.53792     0.41894
    1 imaginary frequencies ignored.
 Zero-point vibrational energy     646512.7 (Joules/Mol)
                                  154.52024 (Kcal/Mol)
 Warning -- explicit consideration of  26 degrees of freedom as
           vibrations may cause significant error
 Vibrational temperatures:     74.24   110.03   129.05   182.68   198.73
          (Kelvin)            273.81   308.63   338.71   354.67   365.86
                              398.86   453.54   495.57   504.78   536.50
                              576.97   618.95   652.22   678.36   695.92
                              755.28   797.51   821.87   858.27   879.90
                              885.03   905.53  1017.19  1073.61  1121.68
                             1201.34  1213.51  1230.79  1297.63  1312.31
                             1381.66  1462.02  1505.16  1555.00  1571.42
                             1584.59  1599.03  1624.63  1633.12  1645.26
                             1764.87  1793.10  1828.13  1846.82  1859.02
                             1875.22  1908.89  1936.79  1947.51  1983.57
                             2000.67  2031.11  2055.21  2086.76  2105.88
                             2125.68  2132.37  2137.00  2197.25  2371.83
                             2527.02  2569.47  2778.31  3199.72  3616.83
                             4327.52  4354.37  4362.82  4394.71  4420.76
                             4452.48  4460.53  4893.92  4934.12  5189.84
                             5311.45  5407.23  5444.82

 Zero-point correction=                           0.246244 (Hartree/Particle)
 Thermal correction to Energy=                    0.260857
 Thermal correction to Enthalpy=                  0.261801
 Thermal correction to Gibbs Free Energy=         0.205734
 Sum of electronic and zero-point Energies=           -839.736306
 Sum of electronic and thermal Energies=              -839.721693
 Sum of electronic and thermal Enthalpies=            -839.720749
 Sum of electronic and thermal Free Energies=         -839.776816

                     E (Thermal)             CV                S
                      KCal/Mol        Cal/Mol-Kelvin    Cal/Mol-Kelvin
 Total                  163.690             57.351            118.004
 Electronic               0.000              0.000              0.000
 Translational            0.889              2.981             42.015
 Rotational               0.889              2.981             31.871
 Vibrational            161.913             51.389             44.119
 Vibration     1          0.596              1.977              4.755
 Vibration     2          0.599              1.965              3.979
 Vibration     3          0.602              1.956              3.667
 Vibration     4          0.611              1.926              2.991
 Vibration     5          0.614              1.915              2.830
 Vibration     6          0.634              1.853              2.225
 Vibration     7          0.644              1.819              2.005
 Vibration     8          0.655              1.787              1.837
 Vibration     9          0.661              1.769              1.755
 Vibration    10          0.665              1.756              1.701
 Vibration    11          0.678              1.716              1.551
 Vibration    12          0.703              1.645              1.335
 Vibration    13          0.723              1.587              1.192
 Vibration    14          0.728              1.574              1.162
 Vibration    15          0.744              1.528              1.068
 Vibration    16          0.767              1.468              0.959
 Vibration    17          0.791              1.404              0.858
 Vibration    18          0.812              1.354              0.786
 Vibration    19          0.828              1.313              0.733
 Vibration    20          0.840              1.286              0.700
 Vibration    21          0.880              1.195              0.599
 Vibration    22          0.910              1.130              0.535
 Vibration    23          0.927              1.093              0.502
 Vibration    24          0.954              1.039              0.456
 Vibration    25          0.971              1.007              0.430
 Vibration    26          0.975              1.000              0.424

 Normal termination of Gaussian 09 at Thu Jan 12 22:07:40 2017.
