 Gaussian 09, Revision E.01,
 Gaussian 09:  ES64L-G09RevE.01 30-Nov-2015

 ----------------------------------------------------------------------
 # opt=(calcfc,ts,noeigentest,maxcycle=1000,cartesian) b3lyp 6-31g(d) f
 req
 ----------------------------------------------------------------------

 -------------------------
 boat6_Alpha_B3LYP_6-31G_d
 -------------------------
 Symbolic Z-matrix:
 Charge =  0 Multiplicity = 1

 SCF Done:  E(RB3LYP) =  -839.959365255     A.U. after   14 cycles
 SCF Done:  E(RB3LYP) =  -839.959825513     A.U. after   11 cycles
 SCF Done:  E(RB3LYP) =  -839.960047539     A.U. after   11 cycles
 SCF Done:  E(RB3LYP) =  -839.960022156     A.U. after   11 cycles
 SCF Done:  E(RB3LYP) =  -839.960091371     A.U. after   11 cycles
 SCF Done:  E(RB3LYP) =  -839.960067563     A.U. after   11 cycles
 SCF Done:  E(RB3LYP) =  -839.959711161     A.U. after   11 cycles
 SCF Done:  E(RB3LYP) =  -839.959978205     A.U. after   12 cycles
 SCF Done:  E(RB3LYP) =  -839.960101101     A.U. after   11 cycles
 SCF Done:  E(RB3LYP) =  -839.960180482     A.U. after   11 cycles
 SCF Done:  E(RB3LYP) =  -839.961912952     A.U. after    8 cycles
 SCF Done:  E(RB3LYP) =  -839.961911537     A.U. after    8 cycles
 SCF Done:  E(RB3LYP) =  -839.961910742     A.U. after    8 cycles
 SCF Done:  E(RB3LYP) =  -839.961907844     A.U. after    8 cycles
 SCF Done:  E(RB3LYP) =  -839.961909999     A.U. after    8 cycles
 SCF Done:  E(RB3LYP) =  -839.961911838     A.U. after    8 cycles
 SCF Done:  E(RB3LYP) =  -839.961912681     A.U. after    8 cycles
 SCF Done:  E(RB3LYP) =  -839.961912928     A.U. after    7 cycles
 SCF Done:  E(RB3LYP) =  -839.961913228     A.U. after    7 cycles
 Optimization completed.
    -- Stationary point found.
 Normal termination of Gaussian 09 at Thu Jan 12 09:09:00 2017.

 --------------------------------------------------------------------
 #N Geom=AllCheck Guess=TCheck SCRF=Check GenChk RB3LYP/6-31G(d) Freq
 --------------------------------------------------------------------

 Structure from the checkpoint file:  "/scratch/10453148.yak.local/Gau-16532.chk"
 -------------------------
 boat6_Alpha_B3LYP_6-31G_d
 -------------------------
 Charge =  0 Multiplicity = 1

                         Standard orientation:
 ---------------------------------------------------------------------
 Center     Atomic      Atomic             Coordinates (Angstroms)
 Number     Number       Type             X           Y           Z
 ---------------------------------------------------------------------
      1          6           0       -1.123566    0.734234   -0.207859
      2          6           0       -0.452336   -1.509620    0.826160
      3          6           0       -1.373952   -0.268543    0.942571
      4          6           0       -0.224511   -1.817144   -0.667316
      5          1           0        0.345612   -2.747972   -0.771145
      6          1           0       -0.966924   -2.352188    1.313648
      7          1           0       -1.767239    0.462023   -1.050134
      8          1           0       -1.200266    0.204951    1.920838
      9          6           0        0.719209   -0.711981   -1.215518
     10          1           0        0.588943   -0.554762   -2.296191
     11          8           0        0.240124    0.665852   -0.635449
     12          6           0       -1.465534    2.159682    0.199712
     13          1           0       -2.454783    2.133151    0.685204
     14          1           0       -0.734932    2.516237    0.944570
     15          8           0       -1.470207    2.970976   -0.961639
     16          1           0       -1.656830    3.881839   -0.689454
     17          8           0        1.962330   -0.944565   -0.793431
     18          8           0       -1.438806   -1.959009   -1.387955
     19          1           0       -2.182682   -1.698286   -0.816069
     20          8           0        0.802691   -1.304939    1.485533
     21          1           0        1.481768   -1.346807    0.736411
     22          8           0       -2.751577   -0.657087    0.815704
     23          1           0       -2.985637   -1.201028    1.585277
     24          8           0        1.765068    1.233803    1.272183
     25          1           0        2.736973    1.082091    0.765657
     26          1           0        1.522062    0.381038    1.726373
     27          1           0        1.119828    1.133093    0.429508
     28          8           0        3.667824    0.775536   -0.198359
     29          1           0        3.037885    0.075184   -0.665782
     30          1           0        4.420790    0.267133    0.142102
 ---------------------------------------------------------------------

 SCF Done:  E(RB3LYP) =  -839.961913228     A.U. after    1 cycles

 The electronic state is 1-A.
 Alpha  occ. eigenvalues --  -19.20860 -19.18211 -19.16578 -19.16227 -19.15115
 Alpha  occ. eigenvalues --  -19.14878 -19.13735 -19.09009 -10.26837 -10.25654
 Alpha  occ. eigenvalues --  -10.24976 -10.24571 -10.24161 -10.23140  -1.08513
 Alpha  occ. eigenvalues --   -1.05733  -1.03758  -1.02508  -1.01840  -1.01306
 Alpha  occ. eigenvalues --   -1.00828  -0.95511  -0.78225  -0.75055  -0.68962
 Alpha  occ. eigenvalues --   -0.64159  -0.61338  -0.58339  -0.57899  -0.55517
 Alpha  occ. eigenvalues --   -0.54496  -0.53356  -0.52642  -0.51615  -0.48541
 Alpha  occ. eigenvalues --   -0.48208  -0.47519  -0.45227  -0.44129  -0.42110
 Alpha  occ. eigenvalues --   -0.41606  -0.41131  -0.40518  -0.40009  -0.39617
 Alpha  occ. eigenvalues --   -0.38168  -0.36725  -0.35443  -0.33538  -0.33471
 Alpha  occ. eigenvalues --   -0.32864  -0.30547  -0.29098  -0.27304  -0.27177
 Alpha  occ. eigenvalues --   -0.26936  -0.24847  -0.22423
 Alpha virt. eigenvalues --    0.04270   0.05972   0.06704   0.08694   0.09810
 Alpha virt. eigenvalues --    0.10119   0.12434   0.13203   0.14483   0.15214
 Alpha virt. eigenvalues --    0.16134   0.16988   0.17744   0.18849   0.19968

 Mulliken charges:
               1
     1  C    0.151630
     2  C    0.111633
     3  C    0.034265
     4  C    0.066059
     5  H    0.155220
     6  H    0.122606
     7  H    0.177323
     8  H    0.136800
     9  C    0.371341
    10  H    0.137775
    11  O   -0.605866
    12  C   -0.056713
    13  H    0.138509
    14  H    0.128451
    15  O   -0.609316
    16  H    0.396763
    17  O   -0.705871
    18  O   -0.659003
    19  H    0.415673
    20  O   -0.700583
    21  H    0.418956
    22  O   -0.629157
    23  H    0.404148
    24  O   -0.816805
    25  H    0.462431
    26  H    0.440161
    27  H    0.475473
    28  O   -0.819617
    29  H    0.449847
    30  H    0.407867
 Sum of Mulliken charges =  -0.00000

 Dipole moment (field-independent basis, Debye):
    X=             -0.7752    Y=              0.9794    Z=              4.7014  Tot=              4.8645
 Quadrupole moment (field-independent basis, Debye-Ang):
   XX=            -73.9035   YY=            -81.0438   ZZ=            -87.5260
   XY=             -3.0392   XZ=             -3.3048   YZ=             -0.9819

  Exact polarizability: 109.478  -0.013  96.086  -1.824   1.313  86.571
 Approx polarizability: 148.538   0.500 127.115   1.409   2.261 130.536

 ******    1 imaginary frequencies (negative Signs) ******

                      1                      2                      3
                      A                      A                      A
 Frequencies --   -320.5111                59.6791                88.4528
 Red. masses --      2.7176                 6.2273                 5.8226
 Frc consts  --      0.1645                 0.0131                 0.0268
 IR Inten    --     58.3999                 0.2990                 1.1273

                      4                      5                      6
                      A                      A                      A
 Frequencies --     91.9161               125.9176               148.2973
 Red. masses --      6.1222                 4.4209                 7.0263
 Frc consts  --      0.0305                 0.0413                 0.0910
 IR Inten    --      2.3844                 5.8193                 3.9764

                      7                      8                      9
                      A                      A                      A
 Frequencies --    174.2208               191.6368               200.3900
 Red. masses --      4.1361                 2.3651                 5.8612
 Frc consts  --      0.0740                 0.0512                 0.1387
 IR Inten    --      5.0543                42.0354                 4.6891

                     10                     11                     12
                      A                      A                      A
 Frequencies --    233.1953               252.7260               269.4242
 Red. masses --      1.4825                 5.1305                 4.5176
 Frc consts  --      0.0475                 0.1931                 0.1932
 IR Inten    --     50.5104                 2.4298                56.5161

                     13                     14                     15
                      A                      A                      A
 Frequencies --    288.6137               298.3646               343.1907
 Red. masses --      2.8242                 5.0214                 1.7566
 Frc consts  --      0.1386                 0.2634                 0.1219
 IR Inten    --     48.0716                45.5706                48.2155

                     16                     17                     18
                      A                      A                      A
 Frequencies --    356.9542               404.2657               413.3168
 Red. masses --      3.3496                 4.8726                 3.5710
 Frc consts  --      0.2515                 0.4692                 0.3594
 IR Inten    --      9.3845                52.4099                42.2542

                     19                     20                     21
                      A                      A                      A
 Frequencies --    449.5443               463.0650               481.2455
 Red. masses --      5.4495                 3.9886                 1.6164
 Frc consts  --      0.6489                 0.5039                 0.2206
 IR Inten    --     14.2000                20.1304                46.0442

                     22                     23                     24
                      A                      A                      A
 Frequencies --    500.4962               506.4972               533.6362
 Red. masses --      4.7377                 2.0620                 1.5964
 Frc consts  --      0.6992                 0.3117                 0.2678
 IR Inten    --     12.9494                63.5662                55.4118

                     25                     26                     27
                      A                      A                      A
 Frequencies --    546.5698               577.5439               605.6901
 Red. masses --      3.6469                 3.0141                 1.5666
 Frc consts  --      0.6419                 0.5924                 0.3386
 IR Inten    --      5.0411                22.3434                64.1830

                     28                     29                     30
                      A                      A                      A
 Frequencies --    610.2502               628.6810               691.8266
 Red. masses --      2.2513                 1.5954                 2.9951
 Frc consts  --      0.4940                 0.3715                 0.8446
 IR Inten    --    105.4637                31.6995               130.4570

                     31                     32                     33
                      A                      A                      A
 Frequencies --    811.1414               852.4729               875.3967
 Red. masses --      1.0699                 3.8544                 3.1875
 Frc consts  --      0.4148                 1.6503                 1.4392
 IR Inten    --     50.8739                36.3255                23.7264

                     34                     35                     36
                      A                      A                      A
 Frequencies --    918.2255               957.5210               989.3301
 Red. masses --      2.1953                 1.7515                 1.5384
 Frc consts  --      1.0905                 0.9461                 0.8871
 IR Inten    --     89.0021                50.2147                90.7235

                     37                     38                     39
                      A                      A                      A
 Frequencies --   1038.5924              1039.3918              1064.2805
 Red. masses --      1.4423                 2.2570                 3.4588
 Frc consts  --      0.9167                 1.4366                 2.3083
 IR Inten    --    454.2328                47.7979                 7.0080

                     40                     41                     42
                      A                      A                      A
 Frequencies --   1075.3013              1087.2741              1104.5714
 Red. masses --      4.9869                 2.8292                 2.2226
 Frc consts  --      3.3973                 1.9705                 1.5977
 IR Inten    --     72.5401                24.6687                26.1881

                     43                     44                     45
                      A                      A                      A
 Frequencies --   1118.9825              1127.0776              1138.1210
 Red. masses --      2.7560                 2.5294                 2.5150
 Frc consts  --      2.0332                 1.8931                 1.9194
 IR Inten    --     34.8965               107.4121                29.6973

                     46                     47                     48
                      A                      A                      A
 Frequencies --   1152.9479              1202.2384              1238.4362
 Red. masses --      1.9622                 1.2062                 1.4858
 Frc consts  --      1.5368                 1.0272                 1.3426
 IR Inten    --     53.3694                29.4169                43.2215

                     49                     50                     51
                      A                      A                      A
 Frequencies --   1249.9052              1277.5163              1291.6116
 Red. masses --      1.9867                 1.1891                 1.2287
 Frc consts  --      1.8287                 1.1434                 1.2077
 IR Inten    --     73.3632                55.4512                10.3910

                     52                     53                     54
                      A                      A                      A
 Frequencies --   1312.2783              1318.8863              1349.8250
 Red. masses --      1.1453                 1.2121                 1.2436
 Frc consts  --      1.1621                 1.2423                 1.3350
 IR Inten    --     22.8723                21.5343                18.1279

                     55                     56                     57
                      A                      A                      A
 Frequencies --   1353.1903              1359.1364              1368.1629
 Red. masses --      1.2385                 1.2704                 1.2898
 Frc consts  --      1.3362                 1.3826                 1.4225
 IR Inten    --      5.4523                 8.2589                 4.5827

                     58                     59                     60
                      A                      A                      A
 Frequencies --   1396.4283              1416.9695              1453.0996
 Red. masses --      1.3134                 1.5455                 1.3901
 Frc consts  --      1.5090                 1.8282                 1.7294
 IR Inten    --     47.7022                63.8775                 5.6478

                     61                     62                     63
                      A                      A                      A
 Frequencies --   1463.2639              1487.1430              1530.7760
 Red. masses --      1.3413                 1.5253                 1.2040
 Frc consts  --      1.6921                 1.9875                 1.6622
 IR Inten    --     74.7227                14.1444               698.1589

                     64                     65                     66
                      A                      A                      A
 Frequencies --   1553.2466              1581.6910              1655.3631
 Red. masses --      1.1566                 1.1113                 1.1191
 Frc consts  --      1.6440                 1.6381                 1.8069
 IR Inten    --    601.2768               525.8916               207.8990

                     67                     68                     69
                      A                      A                      A
 Frequencies --   1727.3850              1753.7523              1919.1585
 Red. masses --      1.0715                 1.0542                 1.0351
 Frc consts  --      1.8838                 1.9103                 2.2462
 IR Inten    --    215.3441               168.6080               194.1798

                     70                     71                     72
                      A                      A                      A
 Frequencies --   2287.4631              2468.7815              2960.3131
 Red. masses --      1.0665                 1.0733                 1.0738
 Frc consts  --      3.2880                 3.8543                 5.5441
 IR Inten    --   1133.7096              2842.8239               543.1709

                     73                     74                     75
                      A                      A                      A
 Frequencies --   2988.1238              3009.1713              3018.1229
 Red. masses --      1.0556                 1.0850                 1.0853
 Frc consts  --      5.5532                 5.7886                 5.8247
 IR Inten    --     47.8730                59.1609                54.3122

                     76                     77                     78
                      A                      A                      A
 Frequencies --   3020.9315              3034.5605              3068.5622
 Red. masses --      1.1067                 1.0876                 1.0863
 Frc consts  --      5.9506                 5.9007                 6.0268
 IR Inten    --     48.0537                14.9823                42.9174

                     79                     80                     81
                      A                      A                      A
 Frequencies --   3097.3828              3364.0372              3664.4819
 Red. masses --      1.0854                 1.0609                 1.0677
 Frc consts  --      6.1350                 7.0737                 8.4472
 IR Inten    --     13.1014               452.1240               112.2362

                     82                     83                     84
                      A                      A                      A
 Frequencies --   3733.0077              3759.0619              3782.7739
 Red. masses --      1.0662                 1.0665                 1.0650
 Frc consts  --      8.7541                 8.8790                 8.9785
 IR Inten    --     18.8632                18.9525                50.0166

 - Thermochemistry -
 -------------------
 Temperature   298.150 Kelvin.  Pressure   1.00000 Atm.
 Atom     1 has atomic number  6 and mass  12.00000

 Molecular mass:   216.08452 amu.
 Principal axes and moments of inertia in atomic units:
                           1         2         3
     Eigenvalues --  2417.283323109.574074100.25311
           X            0.99993  -0.01034  -0.00548
           Y            0.01038   0.99992   0.00669
           Z            0.00541  -0.00675   0.99996
 This molecule is an asymmetric top.
 Rotational symmetry number  1.
 Warning -- assumption of classical behavior for rotation
           may cause significant error
 Rotational temperatures (Kelvin)      0.03583     0.02785     0.02112
 Rotational constants (GHZ):           0.74660     0.58038     0.44015
    1 imaginary frequencies ignored.
 Zero-point vibrational energy     642409.5 (Joules/Mol)
                                  153.53954 (Kcal/Mol)
 Warning -- explicit consideration of  27 degrees of freedom as
           vibrations may cause significant error
 Vibrational temperatures:     85.86   127.26   132.25   181.17   213.37
          (Kelvin)            250.66   275.72   288.32   335.52   363.62
                              387.64   415.25   429.28   493.77   513.58
                              581.65   594.67   646.79   666.25   692.40
                              720.10   728.74   767.78   786.39   830.96
                              871.45   878.01   904.53   995.38  1167.05
                             1226.52  1259.50  1321.12  1377.66  1423.42
                             1494.30  1495.45  1531.26  1547.12  1564.34
                             1589.23  1609.96  1621.61  1637.50  1658.83
                             1729.75  1781.83  1798.33  1838.06  1858.34
                             1888.07  1897.58  1942.09  1946.94  1955.49
                             1968.48  2009.15  2038.70  2090.68  2105.31
                             2139.66  2202.44  2234.77  2275.70  2381.70
                             2485.32  2523.26  2761.24  3291.15  3552.02
                             4259.22  4299.24  4329.52  4342.40  4346.44
                             4366.05  4414.97  4456.44  4840.09  5272.37
                             5370.96  5408.44  5442.56

 Zero-point correction=                           0.244681 (Hartree/Particle)
 Thermal correction to Energy=                    0.259638
 Thermal correction to Enthalpy=                  0.260582
 Thermal correction to Gibbs Free Energy=         0.204042
 Sum of electronic and zero-point Energies=           -839.717232
 Sum of electronic and thermal Energies=              -839.702275
 Sum of electronic and thermal Enthalpies=            -839.701331
 Sum of electronic and thermal Free Energies=         -839.757871

                     E (Thermal)             CV                S
                      KCal/Mol        Cal/Mol-Kelvin    Cal/Mol-Kelvin
 Total                  162.925             57.968            118.998
 Electronic               0.000              0.000              0.000
 Translational            0.889              2.981             42.015
 Rotational               0.889              2.981             31.800
 Vibrational            161.148             52.006             45.183
 Vibration     1          0.597              1.974              4.468
 Vibration     2          0.601              1.957              3.694
 Vibration     3          0.602              1.955              3.619
 Vibration     4          0.611              1.927              3.007
 Vibration     5          0.618              1.905              2.694
 Vibration     6          0.627              1.874              2.389
 Vibration     7          0.634              1.851              2.212
 Vibration     8          0.638              1.839              2.130
 Vibration     9          0.654              1.790              1.854
 Vibration    10          0.664              1.758              1.711
 Vibration    11          0.674              1.729              1.600
 Vibration    12          0.685              1.695              1.482
 Vibration    13          0.691              1.677              1.426
 Vibration    14          0.722              1.589              1.197
 Vibration    15          0.732              1.561              1.135
 Vibration    16          0.769              1.461              0.947
 Vibration    17          0.777              1.441              0.915
 Vibration    18          0.808              1.362              0.797
 Vibration    19          0.821              1.332              0.757
 Vibration    20          0.838              1.292              0.707
 Vibration    21          0.856              1.249              0.657
 Vibration    22          0.862              1.236              0.642
 Vibration    23          0.889              1.176              0.579
 Vibration    24          0.902              1.147              0.551
 Vibration    25          0.934              1.080              0.490
 Vibration    26          0.964              1.020              0.440
 Vibration    27          0.969              1.010              0.432

 Normal termination of Gaussian 09 at Thu Jan 12 09:27:53 2017.
