 Gaussian 09, Revision D.01,
 Gaussian 09:  EM64L-G09RevD.01 24-Apr-2013

 -----------------
 # opt freq hf/gen
 -----------------

 ------
 ch2ch2
 ------
 Symbolic Z-matrix:
 Charge =  0 Multiplicity = 1

 SCF Done:  E(RHF) =  -77.8681230181     A.U. after    9 cycles
 SCF Done:  E(RHF) =  -77.8688844272     A.U. after    8 cycles
 SCF Done:  E(RHF) =  -77.8689364353     A.U. after    7 cycles
 SCF Done:  E(RHF) =  -77.8689369477     A.U. after    6 cycles
 Optimization completed.
    -- Stationary point found.
 Normal termination of Gaussian 09 at Fri Nov 18 00:30:32 2016.

 ---------------------------------------------------------------
 #N Geom=AllCheck Guess=TCheck SCRF=Check GenChk RHF/ChkBas Freq
 ---------------------------------------------------------------

 Structure from the checkpoint file:  "/home/chongee/BasisSet/H/New/Gau-14944.chk"
 ------
 ch2ch2
 ------
 Charge =  0 Multiplicity = 1

                         Standard orientation:
 ---------------------------------------------------------------------
 Center     Atomic      Atomic             Coordinates (Angstroms)
 Number     Number       Type             X           Y           Z
 ---------------------------------------------------------------------
      1          6           0        0.669569    0.000000    0.000026
      2          6           0       -0.669569    0.000000    0.000021
      3          1           0        1.245780   -0.926138   -0.000074
      4          1           0        1.245780    0.926138   -0.000074
      5          1           0       -1.245780   -0.926138   -0.000066
      6          1           0       -1.245780    0.926138   -0.000066
 ---------------------------------------------------------------------

 SCF Done:  E(RHF) =  -77.8689369477     A.U. after    1 cycles

 The electronic state is 1-A.
 Alpha  occ. eigenvalues --  -11.25754 -11.25638  -1.03144  -0.78669  -0.63083
 Alpha  occ. eigenvalues --   -0.57554  -0.49152  -0.36540
 Alpha virt. eigenvalues --    0.17991   0.26060   0.27372   0.28995   0.34865
 Alpha virt. eigenvalues --    0.38676   0.42855   0.62194   0.63906   0.72075
 Alpha virt. eigenvalues --    0.72421   0.84733   1.05083   1.07458   1.09424

 Mulliken charges:
               1
     1  C   -0.197990
     2  C   -0.197990
     3  H    0.098995
     4  H    0.098995
     5  H    0.098995
     6  H    0.098995
 Sum of Mulliken charges =   0.00000

 Dipole moment (field-independent basis, Debye):
    X=              0.0000    Y=              0.0000    Z=             -0.0003  Tot=              0.0003
 Quadrupole moment (field-independent basis, Debye-Ang):
   XX=            -11.9952   YY=            -12.4240   ZZ=            -15.3971
   XY=              0.0000   XZ=              0.0000   YZ=              0.0000

  Exact polarizability:  32.507   0.000  19.799   0.000   0.000  11.667
 Approx polarizability:  26.347   0.000  15.474   0.000   0.000   9.463

                      1                      2                      3
                      A                      A                      A
 Frequencies --    880.7334              1080.6666              1086.0788
 Red. masses --      1.0435                 1.1607                 1.5196
 Frc consts  --      0.4769                 0.7987                 1.0561
 IR Inten    --      0.6816               136.9016                 0.0000
 Raman Activ --      0.0000                 0.0000                 9.4772

                      4                      5                      6
                      A                      A                      A
 Frequencies --   1131.6242              1322.8452              1471.8225
 Red. masses --      1.0078                 1.5304                 1.2354
 Frc consts  --      0.7604                 1.5779                 1.5768
 IR Inten    --      0.0000                 0.0000                 0.0000
 Raman Activ --      0.0000                 1.7377                59.2674

                      7                      8                      9
                      A                      A                      A
 Frequencies --   1569.1098              1802.7268              3268.3001
 Red. masses --      1.1116                 2.9739                 1.0480
 Frc consts  --      1.6126                 5.6943                 6.5958
 IR Inten    --      4.2761                 0.0000                21.8475
 Raman Activ --      0.0000                23.3754                 0.0000

                     10                     11                     12
                      A                      A                      A
 Frequencies --   3300.6958              3356.7748              3387.2129
 Red. masses --      1.0845                 1.1113                 1.1168
 Frc consts  --      6.9612                 7.3781                 7.5492
 IR Inten    --      0.0000                 0.0000                52.5721
 Raman Activ --    209.1177               169.9959                 0.0000

 - Thermochemistry -
 -------------------
 Temperature   298.150 Kelvin.  Pressure   1.00000 Atm.
 Atom     1 has atomic number  6 and mass  12.00000

 Molecular mass:    28.03130 amu.
 Principal axes and moments of inertia in atomic units:
                           1         2         3
     Eigenvalues --    12.34794  60.76590  73.11384
           X            1.00000   0.00000   0.00000
           Y            0.00000   1.00000   0.00000
           Z            0.00000   0.00000   1.00000
 This molecule is an asymmetric top.
 Rotational symmetry number  1.
 Rotational temperatures (Kelvin)      7.01443     1.42537     1.18464
 Rotational constants (GHZ):         146.15727    29.69990    24.68399
 Zero-point vibrational energy     141509.8 (Joules/Mol)
                                   33.82165 (Kcal/Mol)
 Vibrational temperatures:   1267.18  1554.84  1562.62  1628.15  1903.28
          (Kelvin)           2117.62  2257.60  2593.72  4702.35  4748.96
                             4829.64  4873.44

 Zero-point correction=                           0.053898 (Hartree/Particle)
 Thermal correction to Energy=                    0.056885
 Thermal correction to Enthalpy=                  0.057829
 Thermal correction to Gibbs Free Energy=         0.031715
 Sum of electronic and zero-point Energies=            -77.815039
 Sum of electronic and thermal Energies=               -77.812052
 Sum of electronic and thermal Enthalpies=             -77.811108
 Sum of electronic and thermal Free Energies=          -77.837222

                     E (Thermal)             CV                S
                      KCal/Mol        Cal/Mol-Kelvin    Cal/Mol-Kelvin
 Total                   35.696              7.635             54.962
 Electronic               0.000              0.000              0.000
 Translational            0.889              2.981             35.927
 Rotational               0.889              2.981             18.646
 Vibrational             33.918              1.674              0.389

 Optimization completed.
    -- Stationary point found.
 Normal termination of Gaussian 09 at Fri Nov 18 00:30:34 2016.
