 Gaussian 09, Revision D.01,
 Gaussian 09:  AM64L-G09RevD.01 24-Apr-2013

 ----------------------------------------------------------------------
 # opt=(TS, CalcFC, NoEigenTest, MaxCycle=1000, cartesian) Freq B3LYP/6
 -31+G(d,p)
 ----------------------------------------------------------------------

 -----------------------------
 glo_1w_ALPHA_B3LYP_6-31+G_d_p
 -----------------------------
 Symbolic Z-matrix:
 Charge =  0 Multiplicity = 1

 SCF Done:  E(RB3LYP) =  -840.043975181     A.U. after   14 cycles
 SCF Done:  E(RB3LYP) =  -840.055019575     A.U. after   12 cycles
 SCF Done:  E(RB3LYP) =  -840.062296451     A.U. after   11 cycles
 SCF Done:  E(RB3LYP) =  -840.066467075     A.U. after   11 cycles
 SCF Done:  E(RB3LYP) =  -840.071167799     A.U. after   11 cycles
 SCF Done:  E(RB3LYP) =  -840.072168072     A.U. after   10 cycles
 SCF Done:  E(RB3LYP) =  -840.073248599     A.U. after   11 cycles
 SCF Done:  E(RB3LYP) =  -840.073593663     A.U. after   11 cycles
 SCF Done:  E(RB3LYP) =  -840.073910716     A.U. after   11 cycles
 SCF Done:  E(RB3LYP) =  -840.073651257     A.U. after   11 cycles
 SCF Done:  E(RB3LYP) =  -840.074529123     A.U. after    9 cycles
 SCF Done:  E(RB3LYP) =  -840.074529122     A.U. after    7 cycles
 SCF Done:  E(RB3LYP) =  -840.074505106     A.U. after   10 cycles
 SCF Done:  E(RB3LYP) =  -840.074528717     A.U. after   10 cycles
 SCF Done:  E(RB3LYP) =  -840.074525974     A.U. after    9 cycles
 SCF Done:  E(RB3LYP) =  -840.074528852     A.U. after    9 cycles
 SCF Done:  E(RB3LYP) =  -840.074529118     A.U. after    8 cycles
 SCF Done:  E(RB3LYP) =  -840.074529084     A.U. after    8 cycles
 SCF Done:  E(RB3LYP) =  -840.074528945     A.U. after    8 cycles
 Optimization completed.
    -- Stationary point found.
 Normal termination of Gaussian 09 at Thu Jun  9 01:05:28 2016.

 ----------------------------------------------------------------------
 #N Geom=AllCheck Guess=TCheck SCRF=Check GenChk RB3LYP/6-31+G(d,p) Fre
 q
 ----------------------------------------------------------------------

 Structure from the checkpoint file:  "/home/iawad/scratch/MAIN/PRO_Halides/direct/TsF/glo_1w_ALPHA/glo_1w_ALPHA_TsF_B3LYP_6-31+G_d_p.chk"
 -----------------------------
 glo_1w_ALPHA_B3LYP_6-31+G_d_p
 -----------------------------
 Charge =  0 Multiplicity = 1

                         Standard orientation:
 ---------------------------------------------------------------------
 Center     Atomic      Atomic             Coordinates (Angstroms)
 Number     Number       Type             X           Y           Z
 ---------------------------------------------------------------------
      1          6           0       -1.522321   -1.470760   -0.158861
      2          8           0       -1.639763    0.220817   -0.726100
      3          1           0       -4.402438   -0.019576    0.512917
      4          8           0       -3.495177    0.185178    0.771011
      5          1           0       -2.667325    0.363064   -0.142728
      6          6           0       -0.107500   -1.809058   -0.602204
      7          6           0        0.941012   -0.901949    0.051893
      8          6           0        0.741980    0.565289   -0.359891
      9          6           0       -0.680097    1.094839   -0.101511
     10          1           0       -0.055891   -1.661672   -1.691995
     11          1           0        0.987543    0.661436   -1.423046
     12          1           0       -0.860457    1.119005    0.984217
     13          1           0        0.850454   -0.993390    1.145200
     14          8           0        0.124189   -3.169164   -0.282785
     15          8           0        2.188602   -1.413326   -0.396785
     16          8           0        1.696447    1.424893    0.312937
     17          1           0        2.933799   -0.999832    0.082734
     18          1           0        1.079485   -3.308718   -0.379043
     19          1           0        1.497746    1.412890    1.262699
     20          6           0       -0.917274    2.505028   -0.670832
     21          8           0       -0.215142    3.520889    0.029772
     22          1           0       -1.979634    2.744073   -0.572486
     23          1           0       -0.668685    2.506006   -1.742841
     24          1           0        0.729728    3.314160   -0.018638
     25          1           0       -2.291676   -1.811254   -0.867038
     26          8           0       -1.817923   -1.458585    1.095870
     27          1           0       -2.854960   -0.743342    1.122058
     28          8           0        4.194993    0.219985    0.707624
     29          1           0        5.055734    0.327379    0.285382
     30          1           0        3.621968    0.943942    0.398697
 ---------------------------------------------------------------------

 SCF Done:  E(RB3LYP) =  -840.074528945     A.U. after    1 cycles

 The electronic state is 1-A.
 Alpha  occ. eigenvalues --  -19.21079 -19.19637 -19.18709 -19.17317 -19.16636
 Alpha  occ. eigenvalues --  -19.16553 -19.16254 -19.14910 -10.30868 -10.27329
 Alpha  occ. eigenvalues --  -10.26779 -10.25964 -10.25739 -10.25125  -1.08498
 Alpha  occ. eigenvalues --   -1.07442  -1.05011  -1.03939  -1.03550  -1.02570
 Alpha  occ. eigenvalues --   -1.01884  -1.00721  -0.80428  -0.77278  -0.70842
 Alpha  occ. eigenvalues --   -0.66495  -0.63820  -0.59232  -0.58403  -0.56868
 Alpha  occ. eigenvalues --   -0.55790  -0.54940  -0.52911  -0.51579  -0.50961
 Alpha  occ. eigenvalues --   -0.49583  -0.48930  -0.46155  -0.45141  -0.44666
 Alpha  occ. eigenvalues --   -0.43750  -0.42921  -0.41868  -0.41474  -0.39230
 Alpha  occ. eigenvalues --   -0.38288  -0.37289  -0.36980  -0.36836  -0.35333
 Alpha  occ. eigenvalues --   -0.33996  -0.33441  -0.31533  -0.30685  -0.29414
 Alpha  occ. eigenvalues --   -0.28651  -0.28005  -0.27783
 Alpha virt. eigenvalues --   -0.02330  -0.00661  -0.00360   0.00478   0.01543
 Alpha virt. eigenvalues --    0.02959   0.03149   0.04229   0.04869   0.05421
 Alpha virt. eigenvalues --    0.06226   0.07289   0.07784   0.08062   0.08727

 Mulliken charges:
               1
     1  C    0.228725
     2  O   -0.534341
     3  H    0.397357
     4  O   -0.899395
     5  H    0.508041
     6  C    0.087584
     7  C    0.285001
     8  C   -0.153130
     9  C   -0.063237
    10  H    0.129623
    11  H    0.157464
    12  H    0.159274
    13  H    0.151398
    14  O   -0.508293
    15  O   -0.637501
    16  O   -0.674002
    17  H    0.434923
    18  H    0.373389
    19  H    0.384999
    20  C   -0.111917
    21  O   -0.487021
    22  H    0.145380
    23  H    0.134938
    24  H    0.373885
    25  H    0.125260
    26  O   -0.528485
    27  H    0.489217
    28  O   -0.765670
    29  H    0.382829
    30  H    0.413706
 Sum of Mulliken charges =   0.00000

 Dipole moment (field-independent basis, Debye):
    X=              1.2063    Y=              1.5817    Z=             -2.0749  Tot=              2.8744
 Quadrupole moment (field-independent basis, Debye-Ang):
   XX=            -64.8239   YY=           -104.0573   ZZ=            -89.1813
   XY=              6.0662   XZ=              2.2938   YZ=              1.1202

  Exact polarizability: 129.980  -0.357 123.960  -0.798  -0.053  96.412
 Approx polarizability: 160.989  -0.141 159.194  -1.494  -3.254 153.471

 ******    1 imaginary frequencies (negative Signs) ******

                      1                      2                      3
                      A                      A                      A
 Frequencies --  -1424.4429                36.5503                63.9332
 Red. masses --      1.1123                 5.7381                 6.6250
 Frc consts  --      1.3298                 0.0045                 0.0160
 IR Inten    --    235.4241                 2.7149                 3.2263

                      4                      5                      6
                      A                      A                      A
 Frequencies --     85.7589               100.5494               119.3094
 Red. masses --      5.0274                 6.1553                 4.5020
 Frc consts  --      0.0218                 0.0367                 0.0378
 IR Inten    --      3.6174                 2.0567                 9.7812

                      7                      8                      9
                      A                      A                      A
 Frequencies --    132.5284               152.7810               163.9505
 Red. masses --      6.5780                 4.4901                 3.0259
 Frc consts  --      0.0681                 0.0618                 0.0479
 IR Inten    --      1.9081                 3.5069                 4.3909

                     10                     11                     12
                      A                      A                      A
 Frequencies --    184.6151               215.2357               230.9457
 Red. masses --      4.5109                 3.0021                 1.5521
 Frc consts  --      0.0906                 0.0819                 0.0488
 IR Inten    --     20.3119                51.5800               226.7704

                     13                     14                     15
                      A                      A                      A
 Frequencies --    258.2313               281.3585               293.8448
 Red. masses --      3.6367                 2.8063                 1.9642
 Frc consts  --      0.1429                 0.1309                 0.0999
 IR Inten    --     26.0609                58.3053                51.6435

                     16                     17                     18
                      A                      A                      A
 Frequencies --    315.7767               341.9384               353.8709
 Red. masses --      4.8913                 3.5108                 4.1019
 Frc consts  --      0.2874                 0.2419                 0.3026
 IR Inten    --     15.5900                91.7766                27.6436

                     19                     20                     21
                      A                      A                      A
 Frequencies --    388.1570               420.3277               429.1412
 Red. masses --      1.9991                 1.5420                 1.2809
 Frc consts  --      0.1775                 0.1605                 0.1390
 IR Inten    --     85.2845                40.3941               129.2923

                     22                     23                     24
                      A                      A                      A
 Frequencies --    438.6640               480.1846               488.4136
 Red. masses --      4.0003                 1.6294                 2.7965
 Frc consts  --      0.4535                 0.2214                 0.3930
 IR Inten    --      5.3125                19.7573               132.2999

                     25                     26                     27
                      A                      A                      A
 Frequencies --    497.8290               502.0493               520.9591
 Red. masses --      1.5816                 4.4166                 2.0707
 Frc consts  --      0.2309                 0.6559                 0.3311
 IR Inten    --     44.4451                17.7491                48.0577

                     28                     29                     30
                      A                      A                      A
 Frequencies --    577.2779               602.7021               617.7877
 Red. masses --      2.6949                 3.3544                 1.3001
 Frc consts  --      0.5291                 0.7179                 0.2923
 IR Inten    --     21.0243                81.7803                26.1823

                     31                     32                     33
                      A                      A                      A
 Frequencies --    656.9859               699.8665               731.8844
 Red. masses --      1.7607                 4.2607                 2.2940
 Frc consts  --      0.4478                 1.2296                 0.7240
 IR Inten    --     42.5240                43.6659               231.2706

                     34                     35                     36
                      A                      A                      A
 Frequencies --    771.9664               778.6563               901.7489
 Red. masses --      2.1957                 1.3753                 1.6938
 Frc consts  --      0.7709                 0.4913                 0.8115
 IR Inten    --     21.5008               119.1566                47.7005

                     37                     38                     39
                      A                      A                      A
 Frequencies --    942.2054              1000.8211              1001.1382
 Red. masses --      3.0864                 4.7572                 3.8371
 Frc consts  --      1.6144                 2.8075                 2.2659
 IR Inten    --     38.5780               159.7206               155.2857

                     40                     41                     42
                      A                      A                      A
 Frequencies --   1034.2676              1077.1765              1080.9768
 Red. masses --      4.2827                 3.1128                 3.1333
 Frc consts  --      2.6992                 2.1280                 2.1572
 IR Inten    --     59.8393                75.0085                69.7085

                     43                     44                     45
                      A                      A                      A
 Frequencies --   1094.8012              1103.9109              1115.5959
 Red. masses --      3.4571                 2.4941                 3.8546
 Frc consts  --      2.4414                 1.7907                 2.8265
 IR Inten    --    391.4894               200.4343                 1.7804

                     46                     47                     48
                      A                      A                      A
 Frequencies --   1128.8147              1191.6109              1199.5982
 Red. masses --      2.5990                 1.2922                 1.1761
 Frc consts  --      1.9512                 1.0810                 0.9971
 IR Inten    --      9.6306              1065.4058               141.5212

                     49                     50                     51
                      A                      A                      A
 Frequencies --   1219.3554              1237.2962              1255.4359
 Red. masses --      1.2640                 1.2189                 1.2243
 Frc consts  --      1.1072                 1.0995                 1.1369
 IR Inten    --    547.7622              1764.6656               140.5873

                     52                     53                     54
                      A                      A                      A
 Frequencies --   1273.4781              1285.8059              1334.2856
 Red. masses --      1.1806                 1.2377                 1.2519
 Frc consts  --      1.1280                 1.2057                 1.3131
 IR Inten    --     18.2340                21.0434               139.4420

                     55                     56                     57
                      A                      A                      A
 Frequencies --   1355.9076              1377.1419              1382.8706
 Red. masses --      1.3501                 1.2122                 1.3211
 Frc consts  --      1.4624                 1.3545                 1.4885
 IR Inten    --     99.4869                18.0353                82.1891

                     58                     59                     60
                      A                      A                      A
 Frequencies --   1396.5199              1412.2663              1423.8451
 Red. masses --      1.3427                 1.2206                 1.2595
 Frc consts  --      1.5429                 1.4344                 1.5045
 IR Inten    --     17.6113                24.9015               159.0914

                     61                     62                     63
                      A                      A                      A
 Frequencies --   1424.7934              1437.5411              1440.0267
 Red. masses --      1.2825                 1.3476                 1.4689
 Frc consts  --      1.5339                 1.6408                 1.7947
 IR Inten    --    137.9112                71.0254                 0.7715

                     64                     65                     66
                      A                      A                      A
 Frequencies --   1461.9873              1508.8034              1534.4829
 Red. masses --      1.2936                 1.0852                 1.3213
 Frc consts  --      1.6290                 1.4555                 1.8330
 IR Inten    --    200.3054                14.0266                58.4466

                     67                     68                     69
                      A                      A                      A
 Frequencies --   1571.2884              1598.6741              1630.2484
 Red. masses --      1.8286                 1.0801                 1.1191
 Frc consts  --      2.6600                 1.6265                 1.7523
 IR Inten    --    240.4266                94.3988               135.4005

                     70                     71                     72
                      A                      A                      A
 Frequencies --   1832.8644              3000.5822              3005.4932
 Red. masses --      1.0307                 1.0820                 1.0731
 Frc consts  --      2.0401                 5.7399                 5.7114
 IR Inten    --     15.4408                10.9385                18.1533

                     73                     74                     75
                      A                      A                      A
 Frequencies --   3016.6685              3019.4029              3028.9812
 Red. masses --      1.0826                 1.0813                 1.0892
 Frc consts  --      5.8045                 5.8081                 5.8878
 IR Inten    --      9.6096                46.5531                85.8775

                     76                     77                     78
                      A                      A                      A
 Frequencies --   3084.7475              3110.3409              3595.1311
 Red. masses --      1.0865                 1.0960                 1.0685
 Frc consts  --      6.0917                 6.2471                 8.1367
 IR Inten    --     21.2280                23.0972               495.0869

                     79                     80                     81
                      A                      A                      A
 Frequencies --   3699.2200              3769.4478              3770.6496
 Red. masses --      1.0535                 1.0659                 1.0655
 Frc consts  --      8.4942                 8.9235                 8.9254
 IR Inten    --    316.1865                34.4856                72.1187

                     82                     83                     84
                      A                      A                      A
 Frequencies --   3786.8672              3868.2796              3897.8327
 Red. masses --      1.0660                 1.0662                 1.0754
 Frc consts  --      9.0069                 9.4000                 9.6266
 IR Inten    --     67.2917                67.7352               134.9792

 - Thermochemistry -
 -------------------
 Temperature   298.150 Kelvin.  Pressure   1.00000 Atm.
 Atom     1 has atomic number  6 and mass  12.00000

 Molecular mass:   216.08452 amu.
 Principal axes and moments of inertia in atomic units:
                           1         2         3
     Eigenvalues --  2694.978003332.266275475.74584
           X            0.99999   0.00193   0.00333
           Y           -0.00192   1.00000  -0.00013
           Z           -0.00333   0.00013   0.99999
 This molecule is an asymmetric top.
 Rotational symmetry number  1.
 Warning -- assumption of classical behavior for rotation
           may cause significant error
 Rotational temperatures (Kelvin)      0.03214     0.02599     0.01582
 Rotational constants (GHZ):           0.66967     0.54160     0.32959
    1 imaginary frequencies ignored.
 Zero-point vibrational energy     633155.1 (Joules/Mol)
                                  151.32769 (Kcal/Mol)
 Warning -- explicit consideration of  29 degrees of freedom as
           vibrations may cause significant error
 Vibrational temperatures:     52.59    91.99   123.39   144.67   171.66
          (Kelvin)            190.68   219.82   235.89   265.62   309.68
                              332.28   371.54   404.81   422.78   454.33
                              491.97   509.14   558.47   604.76   617.44
                              631.14   690.88   702.72   716.26   722.34
                              749.54   830.57   867.15   888.86   945.25
                             1006.95  1053.02  1110.69  1120.31  1297.41
                             1355.62  1439.96  1440.41  1488.08  1549.81
                             1555.28  1575.17  1588.28  1605.09  1624.11
                             1714.46  1725.95  1754.38  1780.19  1806.29
                             1832.25  1849.99  1919.74  1950.85  1981.40
                             1989.64  2009.28  2031.93  2048.59  2049.96
                             2068.30  2071.87  2103.47  2170.83  2207.78
                             2260.73  2300.13  2345.56  2637.08  4317.16
                             4324.23  4340.31  4344.24  4358.02  4438.26
                             4475.08  5172.59  5322.35  5423.39  5425.12
                             5448.45  5565.58  5608.10

 Zero-point correction=                           0.241156 (Hartree/Particle)
 Thermal correction to Energy=                    0.257748
 Thermal correction to Enthalpy=                  0.258692
 Thermal correction to Gibbs Free Energy=         0.197899
 Sum of electronic and zero-point Energies=           -839.833373
 Sum of electronic and thermal Energies=              -839.816781
 Sum of electronic and thermal Enthalpies=            -839.815837
 Sum of electronic and thermal Free Energies=         -839.876630

                     E (Thermal)             CV                S
                      KCal/Mol        Cal/Mol-Kelvin    Cal/Mol-Kelvin
 Total                  161.739             62.338            127.950
 Electronic               0.000              0.000              0.000
 Translational            0.889              2.981             42.015
 Rotational               0.889              2.981             32.264
 Vibrational            159.962             56.376             53.672
 Vibration     1          0.594              1.982              5.438
 Vibration     2          0.597              1.972              4.332
 Vibration     3          0.601              1.959              3.755
 Vibration     4          0.604              1.949              3.444
 Vibration     5          0.609              1.933              3.112
 Vibration     6          0.613              1.921              2.909
 Vibration     7          0.619              1.900              2.637
 Vibration     8          0.623              1.887              2.504
 Vibration     9          0.631              1.861              2.281
 Vibration    10          0.645              1.818              1.999
 Vibration    11          0.653              1.794              1.872
 Vibration    12          0.667              1.749              1.674
 Vibration    13          0.681              1.708              1.525
 Vibration    14          0.689              1.685              1.452
 Vibration    15          0.703              1.644              1.332
 Vibration    16          0.721              1.592              1.203
 Vibration    17          0.730              1.567              1.149
 Vibration    18          0.756              1.495              1.007
 Vibration    19          0.783              1.426              0.891
 Vibration    20          0.790              1.407              0.861
 Vibration    21          0.799              1.386              0.831
 Vibration    22          0.837              1.294              0.710
 Vibration    23          0.844              1.276              0.688
 Vibration    24          0.853              1.255              0.664
 Vibration    25          0.857              1.245              0.653
 Vibration    26          0.876              1.204              0.608
 Vibration    27          0.934              1.080              0.490
 Vibration    28          0.961              1.026              0.445
 Vibration    29          0.978              0.994              0.420

 Normal termination of Gaussian 09 at Thu Jun  9 01:59:49 2016.
