 Gaussian 09, Revision D.01,
 Gaussian 09:  AM64L-G09RevD.01 24-Apr-2013

 ----------------------------------------------------------------------
 # opt=(TS, CalcFC, NoEigenTest, MaxCycle=1000, cartesian) Freq B3LYP/6
 -31G(d,p)
 ----------------------------------------------------------------------

 ----------------------------
 glo_1w_ALPHA_B3LYP_6-31G_d_p
 ----------------------------
 Symbolic Z-matrix:
 Charge =  0 Multiplicity = 1

 SCF Done:  E(RB3LYP) =  -839.987431702     A.U. after   14 cycles
 SCF Done:  E(RB3LYP) =  -839.999390390     A.U. after   11 cycles
 SCF Done:  E(RB3LYP) =  -840.007078906     A.U. after   11 cycles
 SCF Done:  E(RB3LYP) =  -840.011881554     A.U. after   11 cycles
 SCF Done:  E(RB3LYP) =  -840.016264573     A.U. after   12 cycles
 SCF Done:  E(RB3LYP) =  -840.017942111     A.U. after   11 cycles
 SCF Done:  E(RB3LYP) =  -840.018312207     A.U. after   11 cycles
 SCF Done:  E(RB3LYP) =  -840.018734721     A.U. after   11 cycles
 SCF Done:  E(RB3LYP) =  -840.018745528     A.U. after   11 cycles
 SCF Done:  E(RB3LYP) =  -840.018710020     A.U. after   11 cycles
 SCF Done:  E(RB3LYP) =  -840.019456448     A.U. after   11 cycles
 SCF Done:  E(RB3LYP) =  -840.019489118     A.U. after   10 cycles
 SCF Done:  E(RB3LYP) =  -840.019489799     A.U. after    9 cycles
 SCF Done:  E(RB3LYP) =  -840.019490244     A.U. after    8 cycles
 SCF Done:  E(RB3LYP) =  -840.019491053     A.U. after    8 cycles
 SCF Done:  E(RB3LYP) =  -840.019491210     A.U. after    7 cycles
 SCF Done:  E(RB3LYP) =  -840.019490937     A.U. after    8 cycles
 SCF Done:  E(RB3LYP) =  -840.019491271     A.U. after    7 cycles
 SCF Done:  E(RB3LYP) =  -840.019491106     A.U. after    7 cycles
 Optimization completed.
    -- Stationary point found.
 Normal termination of Gaussian 09 at Wed Jun  8 18:59:58 2016.

 ----------------------------------------------------------------------
 #N Geom=AllCheck Guess=TCheck SCRF=Check GenChk RB3LYP/6-31G(d,p) Freq
 ----------------------------------------------------------------------

 Structure from the checkpoint file:  "/home/iawad/scratch/MAIN/PRO_Halides/direct/TsF/glo_1w_ALPHA/glo_1w_ALPHA_TsF_B3LYP_6-31G_d_p.chk"
 ----------------------------
 glo_1w_ALPHA_B3LYP_6-31G_d_p
 ----------------------------
 Charge =  0 Multiplicity = 1

                         Standard orientation:
 ---------------------------------------------------------------------
 Center     Atomic      Atomic             Coordinates (Angstroms)
 Number     Number       Type             X           Y           Z
 ---------------------------------------------------------------------
      1          6           0       -1.442722   -1.530121   -0.137356
      2          8           0       -1.637578    0.137404   -0.767232
      3          1           0       -4.332126   -0.292614    0.422913
      4          8           0       -3.488168    0.055578    0.739781
      5          1           0       -2.682538    0.238465   -0.164189
      6          6           0       -0.021230   -1.818731   -0.592561
      7          6           0        0.986310   -0.850420    0.037848
      8          6           0        0.712083    0.599295   -0.387935
      9          6           0       -0.734351    1.046674   -0.120971
     10          1           0        0.012621   -1.682421   -1.685869
     11          1           0        0.940839    0.697097   -1.454511
     12          1           0       -0.910026    1.031312    0.966547
     13          1           0        0.888627   -0.928277    1.132278
     14          8           0        0.288948   -3.150734   -0.240065
     15          8           0        2.252425   -1.308831   -0.403437
     16          8           0        1.626084    1.516313    0.269614
     17          1           0        2.963312   -0.880990    0.119567
     18          1           0        1.256298   -3.199672   -0.308057
     19          1           0        1.392970    1.526931    1.211656
     20          6           0       -1.043336    2.462020   -0.638328
     21          8           0       -0.369183    3.475525    0.084306
     22          1           0       -2.114741    2.645672   -0.512588
     23          1           0       -0.824823    2.502083   -1.717408
     24          1           0        0.577758    3.298931   -0.015654
     25          1           0       -2.207295   -1.926691   -0.824399
     26          8           0       -1.712858   -1.482704    1.118533
     27          1           0       -2.796699   -0.799372    1.121753
     28          8           0        4.139634    0.367568    0.727868
     29          1           0        4.837138    0.423032    0.061545
     30          1           0        3.463726    1.013273    0.447279
 ---------------------------------------------------------------------

 SCF Done:  E(RB3LYP) =  -840.019491106     A.U. after    1 cycles

 The electronic state is 1-A.
 Alpha  occ. eigenvalues --  -19.19996 -19.17572 -19.16535 -19.16420 -19.14525
 Alpha  occ. eigenvalues --  -19.14475 -19.13948 -19.12959 -10.29306 -10.25979
 Alpha  occ. eigenvalues --  -10.25303 -10.24409 -10.24071 -10.23875  -1.07178
 Alpha  occ. eigenvalues --   -1.06247  -1.03432  -1.02178  -1.01974  -1.00787
 Alpha  occ. eigenvalues --   -1.00377  -0.99781  -0.78963  -0.75679  -0.69364
 Alpha  occ. eigenvalues --   -0.64923  -0.62404  -0.57783  -0.57041  -0.54828
 Alpha  occ. eigenvalues --   -0.54180  -0.53309  -0.51557  -0.50040  -0.49624
 Alpha  occ. eigenvalues --   -0.48122  -0.47481  -0.44820  -0.43781  -0.43260
 Alpha  occ. eigenvalues --   -0.42368  -0.41498  -0.40319  -0.39803  -0.37990
 Alpha  occ. eigenvalues --   -0.37389  -0.36096  -0.35583  -0.35496  -0.33843
 Alpha  occ. eigenvalues --   -0.32117  -0.31548  -0.29944  -0.28920  -0.27675
 Alpha  occ. eigenvalues --   -0.26862  -0.26213  -0.25882
 Alpha virt. eigenvalues --    0.01583   0.03377   0.06028   0.07311   0.08867
 Alpha virt. eigenvalues --    0.10560   0.11384   0.12451   0.13425   0.14257
 Alpha virt. eigenvalues --    0.15308   0.16165   0.17353   0.17774   0.18400

 Mulliken charges:
               1
     1  C    0.323890
     2  O   -0.613664
     3  H    0.318600
     4  O   -0.675455
     5  H    0.414976
     6  C    0.198738
     7  C    0.127780
     8  C    0.145082
     9  C    0.132149
    10  H    0.083504
    11  H    0.117876
    12  H    0.103792
    13  H    0.099886
    14  O   -0.559636
    15  O   -0.602553
    16  O   -0.574856
    17  H    0.328062
    18  H    0.323574
    19  H    0.326736
    20  C    0.058056
    21  O   -0.548920
    22  H    0.116353
    23  H    0.088609
    24  H    0.311022
    25  H    0.089747
    26  O   -0.568520
    27  H    0.410355
    28  O   -0.623600
    29  H    0.318727
    30  H    0.329688
 Sum of Mulliken charges =   0.00000

 Dipole moment (field-independent basis, Debye):
    X=              0.5074    Y=              1.3438    Z=             -2.0598  Tot=              2.5111
 Quadrupole moment (field-independent basis, Debye-Ang):
   XX=            -65.1581   YY=            -98.8062   ZZ=            -86.1057
   XY=              6.9976   XZ=              0.3379   YZ=              0.9472

  Exact polarizability: 115.255   0.020 104.935  -1.074   0.021  79.154
 Approx polarizability: 145.459  -0.004 140.264  -1.972  -2.556 132.079

 ******    1 imaginary frequencies (negative Signs) ******

                      1                      2                      3
                      A                      A                      A
 Frequencies --  -1397.3013                38.5186                65.2169
 Red. masses --      1.1243                 5.9064                 6.3947
 Frc consts  --      1.2933                 0.0052                 0.0160
 IR Inten    --    200.8944                 2.1185                 3.3979

                      4                      5                      6
                      A                      A                      A
 Frequencies --     90.5310               104.4888               134.4263
 Red. masses --      5.3274                 6.2504                 4.9288
 Frc consts  --      0.0257                 0.0402                 0.0525
 IR Inten    --      1.5057                 1.8362                 3.7850

                      7                      8                      9
                      A                      A                      A
 Frequencies --    135.9880               160.8439               174.2898
 Red. masses --      6.8885                 2.9210                 4.6796
 Frc consts  --      0.0751                 0.0445                 0.0838
 IR Inten    --      1.4867                 8.8500                12.0554

                     10                     11                     12
                      A                      A                      A
 Frequencies --    190.6310               219.5392               243.4499
 Red. masses --      4.4885                 5.0028                 1.2461
 Frc consts  --      0.0961                 0.1421                 0.0435
 IR Inten    --     22.7125                 1.5945               205.7849

                     13                     14                     15
                      A                      A                      A
 Frequencies --    268.8162               291.6478               316.8062
 Red. masses --      6.1051                 4.1160                 3.1593
 Frc consts  --      0.2599                 0.2063                 0.1868
 IR Inten    --     20.2407                18.9718                38.4478

                     16                     17                     18
                      A                      A                      A
 Frequencies --    323.6081               356.4973               374.5221
 Red. masses --      2.4004                 3.5201                 3.1403
 Frc consts  --      0.1481                 0.2636                 0.2595
 IR Inten    --     76.8783                77.9372                69.7694

                     19                     20                     21
                      A                      A                      A
 Frequencies --    405.3646               440.8143               444.7104
 Red. masses --      2.8767                 1.4442                 3.1775
 Frc consts  --      0.2785                 0.1653                 0.3702
 IR Inten    --     89.6651                33.3483                 7.0820

                     22                     23                     24
                      A                      A                      A
 Frequencies --    468.1890               488.5776               506.3265
 Red. masses --      1.2763                 3.9698                 2.2606
 Frc consts  --      0.1648                 0.5583                 0.3415
 IR Inten    --    106.3401               100.2890                79.8520

                     25                     26                     27
                      A                      A                      A
 Frequencies --    514.4344               527.4917               575.0579
 Red. masses --      3.4924                 1.6460                 1.9632
 Frc consts  --      0.5445                 0.2698                 0.3825
 IR Inten    --     37.6519                27.4095                37.1786

                     28                     29                     30
                      A                      A                      A
 Frequencies --    586.7007               609.1981               629.5330
 Red. masses --      1.4001                 3.5951                 1.1886
 Frc consts  --      0.2839                 0.7861                 0.2775
 IR Inten    --     63.2259               110.2499                74.9751

                     31                     32                     33
                      A                      A                      A
 Frequencies --    656.5891               696.5643               724.2931
 Red. masses --      1.4651                 4.9674                 2.5622
 Frc consts  --      0.3721                 1.4200                 0.7919
 IR Inten    --     34.5899                64.1175               168.6754

                     34                     35                     36
                      A                      A                      A
 Frequencies --    777.4117               841.7532               905.6665
 Red. masses --      4.5056                 1.0698                 1.7000
 Frc consts  --      1.6044                 0.4466                 0.8215
 IR Inten    --     34.5491               105.9766                46.3086

                     37                     38                     39
                      A                      A                      A
 Frequencies --    951.9564              1004.5796              1018.3130
 Red. masses --      3.1246                 4.3166                 3.7741
 Frc consts  --      1.6683                 2.5666                 2.3058
 IR Inten    --     26.1119                92.7779               139.3038

                     40                     41                     42
                      A                      A                      A
 Frequencies --   1040.4731              1084.6203              1093.6618
 Red. masses --      4.2871                 2.3557                 4.5317
 Frc consts  --      2.7345                 1.6328                 3.1936
 IR Inten    --     38.7025                33.3419               114.9759

                     43                     44                     45
                      A                      A                      A
 Frequencies --   1109.8802              1114.6577              1129.0506
 Red. masses --      3.3921                 2.4545                 4.0690
 Frc consts  --      2.4619                 1.7968                 3.0561
 IR Inten    --    170.2642               167.1547                 7.9914

                     46                     47                     48
                      A                      A                      A
 Frequencies --   1134.9069              1204.2150              1208.6149
 Red. masses --      2.6601                 1.2429                 1.2950
 Frc consts  --      2.0187                 1.0620                 1.1145
 IR Inten    --     22.2983                65.4720               102.0015

                     49                     50                     51
                      A                      A                      A
 Frequencies --   1229.0261              1267.1912              1285.9181
 Red. masses --      1.3440                 1.2622                 1.2489
 Frc consts  --      1.1961                 1.1942                 1.2168
 IR Inten    --     63.8021                32.6365               168.4101

                     52                     53                     54
                      A                      A                      A
 Frequencies --   1292.9431              1304.9750              1350.4925
 Red. masses --      1.1445                 1.1723                 1.2085
 Frc consts  --      1.1272                 1.1762                 1.2986
 IR Inten    --     24.1062              1432.5963               372.9512

                     55                     56                     57
                      A                      A                      A
 Frequencies --   1371.3178              1392.6508              1398.1039
 Red. masses --      1.4285                 1.2871                 1.3151
 Frc consts  --      1.5828                 1.4708                 1.5146
 IR Inten    --    566.1579                56.9403                34.6559

                     58                     59                     60
                      A                      A                      A
 Frequencies --   1406.4868              1424.2464              1442.3078
 Red. masses --      1.3575                 1.2144                 1.2045
 Frc consts  --      1.5822                 1.4514                 1.4763
 IR Inten    --     47.8792                25.8274                93.2125

                     61                     62                     63
                      A                      A                      A
 Frequencies --   1446.3119              1459.2624              1470.3217
 Red. masses --      1.3100                 1.5345                 1.3027
 Frc consts  --      1.6145                 1.9253                 1.6593
 IR Inten    --    451.5143                60.9542               151.6868

                     64                     65                     66
                      A                      A                      A
 Frequencies --   1482.4451              1519.5911              1567.9368
 Red. masses --      1.2574                 1.0980                 1.0972
 Frc consts  --      1.6280                 1.4939                 1.5893
 IR Inten    --    359.4979                35.6342               180.1060

                     67                     68                     69
                      A                      A                      A
 Frequencies --   1603.4082              1672.0465              1685.8795
 Red. masses --      2.1607                 1.0762                 1.1077
 Frc consts  --      3.2728                 1.7728                 1.8549
 IR Inten    --    276.8142                59.0817               216.6973

                     70                     71                     72
                      A                      A                      A
 Frequencies --   1866.5882              2982.6604              2991.6145
 Red. masses --      1.0246                 1.0819                 1.0727
 Frc consts  --      2.1032                 5.6710                 5.6566
 IR Inten    --     65.7603                18.5131                24.4756

                     73                     74                     75
                      A                      A                      A
 Frequencies --   3002.8855              3005.0543              3010.5172
 Red. masses --      1.0863                 1.0818                 1.0847
 Frc consts  --      5.7716                 5.7556                 5.7923
 IR Inten    --     74.7442                 5.4662                96.9451

                     76                     77                     78
                      A                      A                      A
 Frequencies --   3086.3704              3099.0394              3530.0443
 Red. masses --      1.0864                 1.0952                 1.0682
 Frc consts  --      6.0975                 6.1971                 7.8428
 IR Inten    --     22.7223                32.1950               474.2201

                     79                     80                     81
                      A                      A                      A
 Frequencies --   3658.9974              3750.1133              3763.2133
 Red. masses --      1.0558                 1.0649                 1.0657
 Frc consts  --      8.3281                 8.8238                 8.8924
 IR Inten    --    436.9058                54.5008                31.9380

                     82                     83                     84
                      A                      A                      A
 Frequencies --   3777.9291              3842.8462              3864.4653
 Red. masses --      1.0656                 1.0657                 1.0722
 Frc consts  --      8.9607                 9.2721                 9.4344
 IR Inten    --     59.0806                49.6417                86.4077

 - Thermochemistry -
 -------------------
 Temperature   298.150 Kelvin.  Pressure   1.00000 Atm.
 Atom     1 has atomic number  6 and mass  12.00000

 Molecular mass:   216.08452 amu.
 Principal axes and moments of inertia in atomic units:
                           1         2         3
     Eigenvalues --  2665.576743285.577135399.81101
           X            0.99997   0.00743   0.00261
           Y           -0.00743   0.99997  -0.00036
           Z           -0.00261   0.00034   1.00000
 This molecule is an asymmetric top.
 Rotational symmetry number  1.
 Warning -- assumption of classical behavior for rotation
           may cause significant error
 Rotational temperatures (Kelvin)      0.03249     0.02636     0.01604
 Rotational constants (GHZ):           0.67705     0.54929     0.33422
    1 imaginary frequencies ignored.
 Zero-point vibrational energy     638139.7 (Joules/Mol)
                                  152.51905 (Kcal/Mol)
 Warning -- explicit consideration of  28 degrees of freedom as
           vibrations may cause significant error
 Vibrational temperatures:     55.42    93.83   130.25   150.34   193.41
          (Kelvin)            195.66   231.42   250.76   274.28   315.87
                              350.27   386.77   419.62   455.81   465.60
                              512.92   538.85   583.23   634.23   639.84
                              673.62   702.95   728.49   740.16   758.94
                              827.38   844.13   876.50   905.76   944.68
                             1002.20  1042.09  1118.52  1211.09  1303.05
                             1369.65  1445.36  1465.12  1497.01  1560.52
                             1573.53  1596.87  1603.74  1624.45  1632.88
                             1732.59  1738.93  1768.29  1823.20  1850.15
                             1860.25  1877.57  1943.06  1973.02  2003.71
                             2011.56  2023.62  2049.17  2075.16  2080.92
                             2099.55  2115.46  2132.91  2186.35  2255.91
                             2306.94  2405.70  2425.60  2685.60  4291.38
                             4304.26  4320.48  4323.60  4331.46  4440.59
                             4458.82  5078.94  5264.47  5395.57  5414.42
                             5435.59  5528.99  5560.10

 Zero-point correction=                           0.243055 (Hartree/Particle)
 Thermal correction to Energy=                    0.259203
 Thermal correction to Enthalpy=                  0.260148
 Thermal correction to Gibbs Free Energy=         0.200401
 Sum of electronic and zero-point Energies=           -839.776437
 Sum of electronic and thermal Energies=              -839.760288
 Sum of electronic and thermal Enthalpies=            -839.759343
 Sum of electronic and thermal Free Energies=         -839.819090

                     E (Thermal)             CV                S
                      KCal/Mol        Cal/Mol-Kelvin    Cal/Mol-Kelvin
 Total                  162.653             61.206            125.747
 Electronic               0.000              0.000              0.000
 Translational            0.889              2.981             42.015
 Rotational               0.889              2.981             32.225
 Vibrational            160.875             55.245             51.507
 Vibration     1          0.594              1.981              5.334
 Vibration     2          0.597              1.971              4.293
 Vibration     3          0.602              1.956              3.649
 Vibration     4          0.605              1.946              3.369
 Vibration     5          0.613              1.919              2.882
 Vibration     6          0.614              1.917              2.860
 Vibration     7          0.622              1.890              2.540
 Vibration     8          0.627              1.874              2.389
 Vibration     9          0.634              1.853              2.222
 Vibration    10          0.647              1.811              1.963
 Vibration    11          0.659              1.774              1.778
 Vibration    12          0.673              1.731              1.604
 Vibration    13          0.687              1.689              1.464
 Vibration    14          0.704              1.642              1.327
 Vibration    15          0.708              1.628              1.292
 Vibration    16          0.732              1.562              1.137
 Vibration    17          0.746              1.524              1.061
 Vibration    18          0.770              1.459              0.943
 Vibration    19          0.801              1.381              0.824
 Vibration    20          0.804              1.373              0.812
 Vibration    21          0.825              1.321              0.743
 Vibration    22          0.844              1.275              0.687
 Vibration    23          0.862              1.236              0.642
 Vibration    24          0.869              1.218              0.623
 Vibration    25          0.882              1.189              0.593
 Vibration    26          0.931              1.085              0.495
 Vibration    27          0.944              1.060              0.473
 Vibration    28          0.968              1.012              0.434

 Normal termination of Gaussian 09 at Wed Jun  8 19:20:23 2016.
