 Gaussian 09, Revision D.01,
 Gaussian 09:  AM64L-G09RevD.01 24-Apr-2013

 -------------------------------------------------------------------
 # opt=(TS, CalcFC, NoEigenTest, MaxCycle=500) Freq B3LYP/6-31G(d,p)
 -------------------------------------------------------------------

 ---------------------------
 glo_2w_Beta_B3LYP_6-31G_d_p
 ---------------------------
 Symbolic Z-matrix:
 Charge =  0 Multiplicity = 1

 SCF Done:  E(RB3LYP) =  -840.026380060     A.U. after   14 cycles
 SCF Done:  E(RB3LYP) =  -840.026573561     A.U. after   11 cycles
 SCF Done:  E(RB3LYP) =  -840.026573849     A.U. after    7 cycles
 Optimization completed.
    -- Stationary point found.
 Normal termination of Gaussian 09 at Sat Jun  4 21:57:50 2016.

 ----------------------------------------------------------------------
 #N Geom=AllCheck Guess=TCheck SCRF=Check GenChk RB3LYP/6-31G(d,p) Freq
 ----------------------------------------------------------------------

 Structure from the checkpoint file:  "/home/iawad/scratch/MAIN/PRO_Halides/direct/TsF/glo_2w_Beta/glo_2w_Beta_B3LYP_6-31G_d_p.chk"
 ---------------------------
 glo_2w_Beta_B3LYP_6-31G_d_p
 ---------------------------
 Charge =  0 Multiplicity = 1

                         Standard orientation:
 ---------------------------------------------------------------------
 Center     Atomic      Atomic             Coordinates (Angstroms)
 Number     Number       Type             X           Y           Z
 ---------------------------------------------------------------------
      1          6           0       -1.289582    0.930438   -0.081600
      2          8           0       -0.559659   -0.719546    0.371513
      3          8           0       -2.363277    1.023472    0.586710
      4          1           0       -3.308478    0.309473    0.133216
      5          1           0       -2.205132   -2.436947   -1.292582
      6          1           0       -4.700166   -0.653125    0.423920
      7          8           0       -4.035812   -0.495541   -0.259798
      8          1           0       -3.271414   -1.425438   -0.318806
      9          8           0       -2.331356   -2.189320   -0.367306
     10          1           0       -1.421521   -1.505990   -0.002359
     11          6           0       -0.134243    1.840199    0.308960
     12          6           0        1.194681    1.407671   -0.308835
     13          6           0        1.702107    0.066821    0.205924
     14          6           0        0.719563   -1.059440   -0.135976
     15          1           0       -1.348759    0.712226   -1.160774
     16          1           0       -0.057146    1.830231    1.405919
     17          1           0        1.798398    0.126228    1.302436
     18          1           0        0.705706   -1.169637   -1.237953
     19          1           0        1.066389    1.329842   -1.402548
     20          8           0       -0.482678    3.130525   -0.172370
     21          8           0        2.126220    2.440014   -0.005181
     22          8           0        2.974038   -0.126279   -0.404821
     23          1           0        2.994431    2.103573   -0.273077
     24          1           0        0.341900    3.640431   -0.154746
     25          1           0        3.272110   -1.013545   -0.141742
     26          6           0        1.134823   -2.398753    0.495739
     27          8           0        2.448701   -2.815710    0.099836
     28          1           0        0.387342   -3.169465    0.266519
     29          1           0        1.167017   -2.281184    1.582272
     30          1           0        2.405811   -3.099202   -0.823629
 ---------------------------------------------------------------------

 SCF Done:  E(RB3LYP) =  -840.026573849     A.U. after    1 cycles

 The electronic state is 1-A.
 Alpha  occ. eigenvalues --  -19.18030 -19.15391 -19.15296 -19.15099 -19.15065
 Alpha  occ. eigenvalues --  -19.15017 -19.13729 -19.13107 -10.28942 -10.24958
 Alpha  occ. eigenvalues --  -10.24812 -10.23995 -10.23760 -10.23446  -1.05476
 Alpha  occ. eigenvalues --   -1.04735  -1.03899  -1.02246  -1.01436  -1.00928
 Alpha  occ. eigenvalues --   -0.99974  -0.97773  -0.78002  -0.75348  -0.69318
 Alpha  occ. eigenvalues --   -0.63811  -0.60985  -0.58292  -0.55374  -0.55215
 Alpha  occ. eigenvalues --   -0.53639  -0.52596  -0.52469  -0.50434  -0.49572
 Alpha  occ. eigenvalues --   -0.46595  -0.45629  -0.45153  -0.44002  -0.43033
 Alpha  occ. eigenvalues --   -0.42781  -0.41551  -0.39892  -0.39128  -0.37363
 Alpha  occ. eigenvalues --   -0.35775  -0.35397  -0.34974  -0.34085  -0.33682
 Alpha  occ. eigenvalues --   -0.31194  -0.30700  -0.29487  -0.27959  -0.27477
 Alpha  occ. eigenvalues --   -0.26334  -0.26036  -0.25788
 Alpha virt. eigenvalues --    0.01409   0.04384   0.05283   0.08389   0.09263
 Alpha virt. eigenvalues --    0.09810   0.12015   0.12658   0.13778   0.14631
 Alpha virt. eigenvalues --    0.15486   0.16110   0.16607   0.18203   0.18949

 Mulliken charges:
               1
     1  C    0.379229
     2  O   -0.638253
     3  O   -0.562059
     4  H    0.422104
     5  H    0.305724
     6  H    0.318335
     7  O   -0.688582
     8  H    0.413603
     9  O   -0.712238
    10  H    0.439450
    11  C    0.174066
    12  C    0.148756
    13  C    0.174444
    14  C    0.145853
    15  H    0.078025
    16  H    0.100985
    17  H    0.088769
    18  H    0.059252
    19  H    0.078551
    20  O   -0.561141
    21  O   -0.582750
    22  O   -0.592679
    23  H    0.328243
    24  H    0.326610
    25  H    0.321684
    26  C    0.023073
    27  O   -0.542802
    28  H    0.104986
    29  H    0.132176
    30  H    0.316585
 Sum of Mulliken charges =   0.00000

 Dipole moment (field-independent basis, Debye):
    X=              0.6508    Y=             -3.9849    Z=             -2.0551  Tot=              4.5306
 Quadrupole moment (field-independent basis, Debye-Ang):
   XX=            -80.8761   YY=            -85.4696   ZZ=            -80.2521
   XY=              5.4085   XZ=             -2.7672   YZ=              5.5095

  Exact polarizability: 118.689  -2.398 108.927  -3.819   3.182  77.361
 Approx polarizability: 154.579  -7.447 142.652  -7.476   5.570 122.501

 ******    1 imaginary frequencies (negative Signs) ******

                      1                      2                      3
                      A                      A                      A
 Frequencies --  -1308.5173                42.7347                54.5053
 Red. masses --      1.0908                 5.4241                 5.7176
 Frc consts  --      1.1004                 0.0058                 0.0100
 IR Inten    --    368.3936                 0.3520                 0.4560

                      4                      5                      6
                      A                      A                      A
 Frequencies --     77.9789                93.3948               112.2338
 Red. masses --      6.1455                 5.0559                 7.4668
 Frc consts  --      0.0220                 0.0260                 0.0554
 IR Inten    --      1.7102                 2.3913                 2.9998

                      7                      8                      9
                      A                      A                      A
 Frequencies --    126.3079               165.9001               178.7614
 Red. masses --      6.4663                 4.8966                 3.0091
 Frc consts  --      0.0608                 0.0794                 0.0567
 IR Inten    --      2.9324                 7.3614                26.8428

                     10                     11                     12
                      A                      A                      A
 Frequencies --    238.2968               243.1273               274.7593
 Red. masses --      4.9781                 5.5197                 3.4927
 Frc consts  --      0.1666                 0.1922                 0.1554
 IR Inten    --     19.3289                10.5855                 5.8857

                     13                     14                     15
                      A                      A                      A
 Frequencies --    283.0962               318.8266               322.3083
 Red. masses --      4.2607                 2.1661                 1.8476
 Frc consts  --      0.2012                 0.1297                 0.1131
 IR Inten    --      7.0245                47.2629               111.4684

                     16                     17                     18
                      A                      A                      A
 Frequencies --    339.0982               370.4645               394.2512
 Red. masses --      5.2934                 5.7246                 1.7143
 Frc consts  --      0.3586                 0.4629                 0.1570
 IR Inten    --     14.9951                40.6746                50.9333

                     19                     20                     21
                      A                      A                      A
 Frequencies --    410.4852               430.7366               446.1153
 Red. masses --      1.0979                 1.9145                 2.9225
 Frc consts  --      0.1090                 0.2093                 0.3427
 IR Inten    --    137.8097               112.3526                35.6354

                     22                     23                     24
                      A                      A                      A
 Frequencies --    450.1978               498.6744               528.3365
 Red. masses --      1.2170                 4.6040                 1.5423
 Frc consts  --      0.1453                 0.6746                 0.2537
 IR Inten    --     25.6459                65.4817               145.6684

                     25                     26                     27
                      A                      A                      A
 Frequencies --    541.8654               550.8254               589.4224
 Red. masses --      3.2160                 3.3473                 2.9462
 Frc consts  --      0.5564                 0.5984                 0.6031
 IR Inten    --     17.6735                35.7178                22.9613

                     28                     29                     30
                      A                      A                      A
 Frequencies --    604.3166               623.3377               631.4397
 Red. masses --      3.1507                 3.4547                 1.2895
 Frc consts  --      0.6779                 0.7909                 0.3029
 IR Inten    --    309.6551                28.2973                88.1116

                     31                     32                     33
                      A                      A                      A
 Frequencies --    647.7029               703.1321               711.8413
 Red. masses --      1.6813                 3.1004                 6.9677
 Frc consts  --      0.4156                 0.9031                 2.0802
 IR Inten    --     64.5257                34.4521                56.0633

                     34                     35                     36
                      A                      A                      A
 Frequencies --    747.4534               907.3221              1009.9724
 Red. masses --      1.0649                 1.6999                 3.8287
 Frc consts  --      0.3505                 0.8245                 2.3010
 IR Inten    --     37.0083                10.1712                76.9032

                     37                     38                     39
                      A                      A                      A
 Frequencies --   1030.3280              1036.2401              1055.3335
 Red. masses --      3.6260                 3.3063                 3.3623
 Frc consts  --      2.2679                 2.0917                 2.2063
 IR Inten    --     57.7642              1007.1733               664.2667

                     40                     41                     42
                      A                      A                      A
 Frequencies --   1061.7010              1077.0154              1093.7997
 Red. masses --      2.4059                 1.8343                 2.0147
 Frc consts  --      1.5978                 1.2536                 1.4201
 IR Inten    --     84.5528               694.8292                 6.7485

                     43                     44                     45
                      A                      A                      A
 Frequencies --   1122.2299              1129.9598              1138.0723
 Red. masses --      3.6386                 2.5462                 3.3335
 Frc consts  --      2.6999                 1.9154                 2.5438
 IR Inten    --     83.2313                24.3455                71.4149

                     46                     47                     48
                      A                      A                      A
 Frequencies --   1145.3730              1182.7994              1201.1065
 Red. masses --      2.1025                 1.4183                 1.3792
 Frc consts  --      1.6251                 1.1691                 1.1723
 IR Inten    --    309.2510               375.9571               786.9443

                     49                     50                     51
                      A                      A                      A
 Frequencies --   1237.0871              1267.0846              1282.3294
 Red. masses --      1.3186                 1.1158                 1.1446
 Frc consts  --      1.1890                 1.0555                 1.1089
 IR Inten    --     81.8716                 8.9220                25.2037

                     52                     53                     54
                      A                      A                      A
 Frequencies --   1305.2321              1322.9968              1356.5964
 Red. masses --      1.1623                 1.1889                 1.1744
 Frc consts  --      1.1666                 1.2261                 1.2734
 IR Inten    --    574.5668               296.5514                86.7606

                     55                     56                     57
                      A                      A                      A
 Frequencies --   1363.9010              1371.9804              1377.4406
 Red. masses --      1.1255                 1.2170                 1.2183
 Frc consts  --      1.2336                 1.3497                 1.3619
 IR Inten    --   1180.0561                66.9776                71.1905

                     58                     59                     60
                      A                      A                      A
 Frequencies --   1386.8893              1391.5621              1408.9217
 Red. masses --      1.1786                 1.2339                 1.3565
 Frc consts  --      1.3356                 1.4078                 1.5865
 IR Inten    --    828.0316               195.6007                58.2295

                     61                     62                     63
                      A                      A                      A
 Frequencies --   1419.9654              1423.6666              1446.3165
 Red. masses --      1.3745                 1.6473                 1.6996
 Frc consts  --      1.6329                 1.9671                 2.0947
 IR Inten    --    122.3132               226.9784                74.2531

                     64                     65                     66
                      A                      A                      A
 Frequencies --   1466.6273              1519.3176              1550.1745
 Red. masses --      1.5468                 1.0925                 1.3769
 Frc consts  --      1.9603                 1.4859                 1.9495
 IR Inten    --     22.4977                37.1514              1483.9075

                     67                     68                     69
                      A                      A                      A
 Frequencies --   1592.4111              1626.9934              1701.4448
 Red. masses --      1.0774                 1.3140                 1.4566
 Frc consts  --      1.6097                 2.0493                 2.4844
 IR Inten    --    441.8349               161.8562               676.2978

                     70                     71                     72
                      A                      A                      A
 Frequencies --   1746.6891              1835.1368              2927.1475
 Red. masses --      1.0767                 1.0400                 1.0814
 Frc consts  --      1.9355                 2.0636                 5.4592
 IR Inten    --    194.9073                14.9303                45.5734

                     73                     74                     75
                      A                      A                      A
 Frequencies --   2968.6384              2990.9223              2994.7591
 Red. masses --      1.0815                 1.0866                 1.0851
 Frc consts  --      5.6155                 5.7272                 5.7341
 IR Inten    --      9.6730                22.0615                97.0143

                     76                     77                     78
                      A                      A                      A
 Frequencies --   3028.5405              3038.7275              3119.7060
 Red. masses --      1.0850                 1.0667                 1.1005
 Frc consts  --      5.8635                 5.8032                 6.3104
 IR Inten    --     70.7142                45.0961                21.6931

                     79                     80                     81
                      A                      A                      A
 Frequencies --   3710.6789              3771.2538              3785.9360
 Red. masses --      1.0660                 1.0654                 1.0657
 Frc consts  --      8.6476                 8.9279                 8.9996
 IR Inten    --    164.8634                56.1433                47.3265

                     82                     83                     84
                      A                      A                      A
 Frequencies --   3809.4724              3843.7219              3845.6422
 Red. masses --      1.0663                 1.0652                 1.0652
 Frc consts  --      9.1174                 9.2722                 9.2819
 IR Inten    --     25.9773                29.2701                49.2242

 - Thermochemistry -
 -------------------
 Temperature   298.150 Kelvin.  Pressure   1.00000 Atm.
 Atom     1 has atomic number  6 and mass  12.00000

 Molecular mass:   216.08452 amu.
 Principal axes and moments of inertia in atomic units:
                           1         2         3
     Eigenvalues --  2634.239693458.245735848.18744
           X            0.99955   0.02981   0.00175
           Y           -0.02981   0.99955   0.00302
           Z           -0.00166  -0.00307   0.99999
 This molecule is an asymmetric top.
 Rotational symmetry number  1.
 Warning -- assumption of classical behavior for rotation
           may cause significant error
 Rotational temperatures (Kelvin)      0.03288     0.02505     0.01481
 Rotational constants (GHZ):           0.68511     0.52187     0.30860
    1 imaginary frequencies ignored.
 Zero-point vibrational energy     629110.7 (Joules/Mol)
                                  150.36106 (Kcal/Mol)
 Warning -- explicit consideration of  27 degrees of freedom as
           vibrations may cause significant error
 Vibrational temperatures:     61.49    78.42   112.19   134.37   161.48
          (Kelvin)            181.73   238.69   257.20   342.86   349.81
                              395.32   407.31   458.72   463.73   487.89
                              533.02   567.24   590.60   619.73   641.86
                              647.73   717.48   760.16   779.62   792.51
                              848.05   869.48   896.84   908.50   931.90
                             1011.65  1024.18  1075.42  1305.43  1453.12
                             1482.41  1490.92  1518.39  1527.55  1549.58
                             1573.73  1614.64  1625.76  1637.43  1647.93
                             1701.78  1728.12  1779.89  1823.05  1844.98
                             1877.94  1903.49  1951.84  1962.35  1973.97
                             1981.83  1995.42  2002.15  2027.12  2043.01
                             2048.34  2080.92  2110.15  2185.96  2230.35
                             2291.12  2340.88  2448.00  2513.09  2640.35
                             4211.51  4271.20  4303.26  4308.78  4357.39
                             4372.05  4488.56  5338.83  5425.99  5447.11
                             5480.97  5530.25  5533.01

 Zero-point correction=                           0.239616 (Hartree/Particle)
 Thermal correction to Energy=                    0.255505
 Thermal correction to Enthalpy=                  0.256449
 Thermal correction to Gibbs Free Energy=         0.196899
 Sum of electronic and zero-point Energies=           -839.786958
 Sum of electronic and thermal Energies=              -839.771069
 Sum of electronic and thermal Enthalpies=            -839.770125
 Sum of electronic and thermal Free Energies=         -839.829675

                     E (Thermal)             CV                S
                      KCal/Mol        Cal/Mol-Kelvin    Cal/Mol-Kelvin
 Total                  160.332             60.431            125.335
 Electronic               0.000              0.000              0.000
 Translational            0.889              2.981             42.015
 Rotational               0.889              2.981             32.344
 Vibrational            158.554             54.469             50.976
 Vibration     1          0.595              1.980              5.128
 Vibration     2          0.596              1.976              4.647
 Vibration     3          0.599              1.964              3.941
 Vibration     4          0.602              1.954              3.588
 Vibration     5          0.607              1.939              3.230
 Vibration     6          0.611              1.927              3.002
 Vibration     7          0.624              1.884              2.481
 Vibration     8          0.629              1.868              2.341
 Vibration     9          0.656              1.782              1.816
 Vibration    10          0.659              1.774              1.780
 Vibration    11          0.677              1.720              1.566
 Vibration    12          0.682              1.705              1.515
 Vibration    13          0.705              1.638              1.316
 Vibration    14          0.707              1.631              1.298
 Vibration    15          0.719              1.597              1.216
 Vibration    16          0.742              1.533              1.078
 Vibration    17          0.761              1.482              0.984
 Vibration    18          0.775              1.447              0.925
 Vibration    19          0.792              1.403              0.856
 Vibration    20          0.805              1.369              0.808
 Vibration    21          0.809              1.360              0.795
 Vibration    22          0.854              1.253              0.661
 Vibration    23          0.883              1.187              0.591
 Vibration    24          0.897              1.158              0.561
 Vibration    25          0.906              1.138              0.542
 Vibration    26          0.947              1.054              0.468
 Vibration    27          0.963              1.023              0.442

 Optimization completed.
    -- Stationary point found.
 Normal termination of Gaussian 09 at Sat Jun  4 22:17:53 2016.
