 Gaussian 09, Revision D.01,
 Gaussian 09:  AM64L-G09RevD.01 24-Apr-2013

 --------------------------------------------------------------------
 # opt=(TS, CalcFC, NoEigenTest, MaxCycle=500) Freq B3LYP/6-31+G(d,p)
 --------------------------------------------------------------------

 ----------------------------
 glo_2w_Beta_B3LYP_6-31+G_d_p
 ----------------------------
 Symbolic Z-matrix:
 Charge =  0 Multiplicity = 1

 SCF Done:  E(RB3LYP) =  -840.083187468     A.U. after   13 cycles
 SCF Done:  E(RB3LYP) =  -840.084877033     A.U. after   12 cycles
 SCF Done:  E(RB3LYP) =  -840.085037132     A.U. after   11 cycles
 SCF Done:  E(RB3LYP) =  -840.085045729     A.U. after   10 cycles
 SCF Done:  E(RB3LYP) =  -840.085045967     A.U. after    8 cycles
 SCF Done:  E(RB3LYP) =  -840.085045930     A.U. after    7 cycles
 SCF Done:  E(RB3LYP) =  -840.085045986     A.U. after    8 cycles
 Optimization completed.
    -- Stationary point found.
 Normal termination of Gaussian 09 at Sat Jun  4 23:59:30 2016.

 ----------------------------------------------------------------------
 #N Geom=AllCheck Guess=TCheck SCRF=Check GenChk RB3LYP/6-31+G(d,p) Fre
 q
 ----------------------------------------------------------------------

 Structure from the checkpoint file:  "/home/iawad/scratch/MAIN/PRO_Halides/direct/TsF/glo_2w_Beta/glo_2w_Beta_B3LYP_6-31+G_d_p.chk"
 ----------------------------
 glo_2w_Beta_B3LYP_6-31+G_d_p
 ----------------------------
 Charge =  0 Multiplicity = 1

                         Standard orientation:
 ---------------------------------------------------------------------
 Center     Atomic      Atomic             Coordinates (Angstroms)
 Number     Number       Type             X           Y           Z
 ---------------------------------------------------------------------
      1          6           0       -1.302208    0.946097   -0.085476
      2          8           0       -0.559348   -0.732028    0.309161
      3          8           0       -2.359473    1.010308    0.616628
      4          1           0       -3.283651    0.320492    0.198384
      5          1           0       -2.271298   -2.571481   -1.287501
      6          1           0       -4.759066   -0.662115    0.398454
      7          8           0       -4.034130   -0.501208   -0.218626
      8          1           0       -3.299725   -1.430566   -0.324897
      9          8           0       -2.346368   -2.198283   -0.400472
     10          1           0       -1.390653   -1.500943   -0.064348
     11          6           0       -0.139470    1.844241    0.306534
     12          6           0        1.189075    1.411916   -0.317292
     13          6           0        1.702073    0.071929    0.201979
     14          6           0        0.740938   -1.068840   -0.159179
     15          1           0       -1.396232    0.747206   -1.162275
     16          1           0       -0.060445    1.841677    1.402213
     17          1           0        1.792728    0.127931    1.298131
     18          1           0        0.749823   -1.191223   -1.257424
     19          1           0        1.067190    1.339950   -1.410783
     20          8           0       -0.496747    3.138308   -0.168811
     21          8           0        2.116248    2.452929   -0.014131
     22          8           0        2.988738   -0.104454   -0.390585
     23          1           0        2.995560    2.143794   -0.278937
     24          1           0        0.310817    3.674824   -0.146850
     25          1           0        3.295524   -1.000013   -0.169257
     26          6           0        1.145320   -2.396583    0.506712
     27          8           0        2.469626   -2.812924    0.133153
     28          1           0        0.409652   -3.175726    0.276653
     29          1           0        1.161937   -2.260552    1.591535
     30          1           0        2.435104   -3.276999   -0.713310
 ---------------------------------------------------------------------

 SCF Done:  E(RB3LYP) =  -840.085045986     A.U. after    1 cycles

 The electronic state is 1-A.
 Alpha  occ. eigenvalues --  -19.19724 -19.17348 -19.17327 -19.17177 -19.16645
 Alpha  occ. eigenvalues --  -19.16245 -19.16027 -19.15975 -10.30983 -10.26387
 Alpha  occ. eigenvalues --  -10.26231 -10.25757 -10.25617 -10.25455  -1.07305
 Alpha  occ. eigenvalues --   -1.06377  -1.05621  -1.03894  -1.02888  -1.02384
 Alpha  occ. eigenvalues --   -1.01836  -0.98542  -0.79799  -0.77061  -0.71134
 Alpha  occ. eigenvalues --   -0.65634  -0.62725  -0.59951  -0.57072  -0.56920
 Alpha  occ. eigenvalues --   -0.55316  -0.54213  -0.54007  -0.52179  -0.51235
 Alpha  occ. eigenvalues --   -0.48145  -0.47061  -0.46690  -0.45629  -0.44907
 Alpha  occ. eigenvalues --   -0.44225  -0.42936  -0.41554  -0.40874  -0.38986
 Alpha  occ. eigenvalues --   -0.37211  -0.36691  -0.35861  -0.35592  -0.35392
 Alpha  occ. eigenvalues --   -0.32845  -0.32305  -0.31350  -0.30038  -0.29345
 Alpha  occ. eigenvalues --   -0.28469  -0.28423  -0.27962
 Alpha virt. eigenvalues --   -0.02433  -0.01790  -0.00258   0.01148   0.01518
 Alpha virt. eigenvalues --    0.03175   0.03336   0.03960   0.04584   0.05755
 Alpha virt. eigenvalues --    0.06666   0.07284   0.08049   0.08242   0.08629

 Mulliken charges:
               1
     1  C    0.179400
     2  O   -0.621566
     3  O   -0.531907
     4  H    0.525548
     5  H    0.367161
     6  H    0.387984
     7  O   -0.901786
     8  H    0.539248
     9  O   -0.925429
    10  H    0.565710
    11  C    0.241065
    12  C    0.148409
    13  C   -0.055558
    14  C   -0.163743
    15  H    0.136577
    16  H    0.147799
    17  H    0.135351
    18  H    0.122813
    19  H    0.132704
    20  O   -0.521259
    21  O   -0.588899
    22  O   -0.574365
    23  H    0.386350
    24  H    0.376907
    25  H    0.403459
    26  C    0.002351
    27  O   -0.590555
    28  H    0.145016
    29  H    0.164510
    30  H    0.366706
 Sum of Mulliken charges =   0.00000

 Dipole moment (field-independent basis, Debye):
    X=              0.9264    Y=             -4.1409    Z=             -2.0303  Tot=              4.7040
 Quadrupole moment (field-independent basis, Debye-Ang):
   XX=            -86.2797   YY=            -87.0438   ZZ=            -83.6890
   XY=              4.4449   XZ=             -2.4824   YZ=              6.0796

  Exact polarizability: 136.890  -3.241 128.801  -2.867   2.239  94.053
 Approx polarizability: 171.334  -7.425 162.795  -6.361   4.942 146.255

 ******    1 imaginary frequencies (negative Signs) ******

                      1                      2                      3
                      A                      A                      A
 Frequencies --  -1350.0992                41.2086                53.1958
 Red. masses --      1.0799                 5.4288                 5.6031
 Frc consts  --      1.1598                 0.0054                 0.0093
 IR Inten    --    358.2509                 0.2802                 0.7621

                      4                      5                      6
                      A                      A                      A
 Frequencies --     75.4964                95.4220               108.5235
 Red. masses --      5.8227                 4.8034                 7.7589
 Frc consts  --      0.0196                 0.0258                 0.0538
 IR Inten    --      2.8420                 2.7129                 5.5613

                      7                      8                      9
                      A                      A                      A
 Frequencies --    122.9563               158.8247               172.5944
 Red. masses --      5.9184                 5.4098                 3.1384
 Frc consts  --      0.0527                 0.0804                 0.0551
 IR Inten    --      3.8612                 8.5377                38.5268

                     10                     11                     12
                      A                      A                      A
 Frequencies --    229.0024               243.7717               276.8212
 Red. masses --      5.2591                 5.6280                 2.5163
 Frc consts  --      0.1625                 0.1970                 0.1136
 IR Inten    --     23.8467                18.7874                30.1173

                     13                     14                     15
                      A                      A                      A
 Frequencies --    279.3778               284.1194               316.9636
 Red. masses --      1.3555                 3.4305                 5.6284
 Frc consts  --      0.0623                 0.1632                 0.3332
 IR Inten    --     81.9925                14.9828                23.2122

                     16                     17                     18
                      A                      A                      A
 Frequencies --    332.9206               367.5990               384.0508
 Red. masses --      5.2961                 5.9231                 1.5885
 Frc consts  --      0.3458                 0.4716                 0.1380
 IR Inten    --     10.8225                26.1334                71.6013

                     19                     20                     21
                      A                      A                      A
 Frequencies --    400.0836               418.5563               426.2617
 Red. masses --      1.0922                 2.2214                 1.1591
 Frc consts  --      0.1030                 0.2293                 0.1241
 IR Inten    --     97.3467                98.7310                34.3736

                     22                     23                     24
                      A                      A                      A
 Frequencies --    441.1733               493.6277               501.3136
 Red. masses --      3.7453                 2.9167                 1.5380
 Frc consts  --      0.4295                 0.4187                 0.2277
 IR Inten    --     13.1739                69.0433                36.6933

                     25                     26                     27
                      A                      A                      A
 Frequencies --    532.1165               543.6480               585.5036
 Red. masses --      5.3004                 3.2136                 1.4175
 Frc consts  --      0.8842                 0.5596                 0.2863
 IR Inten    --     98.1831                 7.9063               170.9279

                     28                     29                     30
                      A                      A                      A
 Frequencies --    590.7622               607.6641               624.4495
 Red. masses --      3.6125                 2.5210                 5.7437
 Frc consts  --      0.7428                 0.5485                 1.3196
 IR Inten    --    107.4324               175.1323                25.0498

                     31                     32                     33
                      A                      A                      A
 Frequencies --    665.9111               687.9938               705.6950
 Red. masses --      1.8001                 2.2573                 3.4343
 Frc consts  --      0.4703                 0.6295                 1.0077
 IR Inten    --     32.6770               407.9928                12.9601

                     34                     35                     36
                      A                      A                      A
 Frequencies --    736.1544               897.4967              1003.0717
 Red. masses --      1.1410                 1.6842                 3.4742
 Frc consts  --      0.3643                 0.7993                 2.0595
 IR Inten    --     97.7841                51.8730               657.2339

                     37                     38                     39
                      A                      A                      A
 Frequencies --   1015.7280              1018.8931              1040.1664
 Red. masses --      2.6057                 3.7463                 3.8624
 Frc consts  --      1.5839                 2.2914                 2.4621
 IR Inten    --   2863.5639                79.5027               542.7759

                     40                     41                     42
                      A                      A                      A
 Frequencies --   1050.5074              1059.4936              1085.3706
 Red. masses --      1.9367                 2.0942                 2.0478
 Frc consts  --      1.2592                 1.3850                 1.4213
 IR Inten    --    147.9989               433.3856                17.0656

                     43                     44                     45
                      A                      A                      A
 Frequencies --   1108.8269              1113.1975              1122.2094
 Red. masses --      4.3813                 2.3787                 3.3508
 Frc consts  --      3.1738                 1.7368                 2.4862
 IR Inten    --     51.8635               240.7978               258.3228

                     46                     47                     48
                      A                      A                      A
 Frequencies --   1135.6050              1157.9128              1184.9544
 Red. masses --      2.0452                 1.5393                 1.5938
 Frc consts  --      1.5540                 1.2160                 1.3185
 IR Inten    --    721.4241               973.6311               214.5714

                     49                     50                     51
                      A                      A                      A
 Frequencies --   1233.2854              1254.4112              1274.2030
 Red. masses --      1.3149                 1.1143                 1.1537
 Frc consts  --      1.1783                 1.0331                 1.1036
 IR Inten    --    132.2139                10.0819                36.8388

                     52                     53                     54
                      A                      A                      A
 Frequencies --   1293.9137              1308.7577              1336.5243
 Red. masses --      1.0734                 1.2310                 1.1522
 Frc consts  --      1.0588                 1.2423                 1.2126
 IR Inten    --    320.1478                14.0255               230.0939

                     55                     56                     57
                      A                      A                      A
 Frequencies --   1347.3231              1359.4752              1365.5734
 Red. masses --      1.1862                 1.1903                 1.2230
 Frc consts  --      1.2687                 1.2962                 1.3437
 IR Inten    --    156.3016                61.8821                11.0635

                     58                     59                     60
                      A                      A                      A
 Frequencies --   1368.8179              1377.3622              1395.7289
 Red. masses --      1.1897                 1.1100                 1.5385
 Frc consts  --      1.3134                 1.2407                 1.7658
 IR Inten    --     64.9865               266.5465               261.9933

                     61                     62                     63
                      A                      A                      A
 Frequencies --   1401.0095              1408.2365              1432.3005
 Red. masses --      1.4577                 1.3633                 1.7096
 Frc consts  --      1.6857                 1.5929                 2.0664
 IR Inten    --    126.9535                26.3586                17.1445

                     64                     65                     66
                      A                      A                      A
 Frequencies --   1448.1387              1450.1715              1508.9600
 Red. masses --      1.6046                 1.1391                 1.0850
 Frc consts  --      1.9826                 1.4113                 1.4555
 IR Inten    --     19.4552              1949.9332                 5.7031

                     67                     68                     69
                      A                      A                      A
 Frequencies --   1565.5153              1608.8006              1621.8213
 Red. masses --      1.0630                 1.1135                 2.9216
 Frc consts  --      1.5349                 1.6980                 4.5276
 IR Inten    --    119.4849               507.6570                14.6438

                     70                     71                     72
                      A                      A                      A
 Frequencies --   1736.5537              1824.4548              2957.1931
 Red. masses --      1.0736                 1.0432                 1.0823
 Frc consts  --      1.9076                 2.0459                 5.5763
 IR Inten    --    225.7367                 2.2761                38.9382

                     73                     74                     75
                      A                      A                      A
 Frequencies --   2986.8347              3007.3601              3035.7393
 Red. masses --      1.0816                 1.0853                 1.0864
 Frc consts  --      5.6853                 5.7830                 5.8991
 IR Inten    --     13.8886                44.5554                11.2247

                     76                     77                     78
                      A                      A                      A
 Frequencies --   3047.7386              3055.7080              3122.1977
 Red. masses --      1.0872                 1.0625                 1.1053
 Frc consts  --      5.9498                 5.8454                 6.3484
 IR Inten    --     75.2703                32.4171                19.2911

                     79                     80                     81
                      A                      A                      A
 Frequencies --   3720.4314              3777.8149              3794.1086
 Red. masses --      1.0665                 1.0658                 1.0660
 Frc consts  --      8.6973                 8.9619                 9.0416
 IR Inten    --    190.1442                76.0277                63.5586

                     82                     83                     84
                      A                      A                      A
 Frequencies --   3833.6580              3864.9232              3866.6405
 Red. masses --      1.0669                 1.0658                 1.0658
 Frc consts  --      9.2386                 9.3798                 9.3881
 IR Inten    --     47.5617                42.6704                72.6402

 - Thermochemistry -
 -------------------
 Temperature   298.150 Kelvin.  Pressure   1.00000 Atm.
 Atom     1 has atomic number  6 and mass  12.00000

 Molecular mass:   216.08452 amu.
 Principal axes and moments of inertia in atomic units:
                           1         2         3
     Eigenvalues --  2653.098123477.729645885.90938
           X            0.99957   0.02920   0.00195
           Y           -0.02921   0.99957   0.00312
           Z           -0.00186  -0.00317   0.99999
 This molecule is an asymmetric top.
 Rotational symmetry number  1.
 Warning -- assumption of classical behavior for rotation
           may cause significant error
 Rotational temperatures (Kelvin)      0.03265     0.02491     0.01472
 Rotational constants (GHZ):           0.68024     0.51894     0.30662
    1 imaginary frequencies ignored.
 Zero-point vibrational energy     624982.3 (Joules/Mol)
                                  149.37436 (Kcal/Mol)
 Warning -- explicit consideration of  28 degrees of freedom as
           vibrations may cause significant error
 Vibrational temperatures:     59.29    76.54   108.62   137.29   156.14
          (Kelvin)            176.91   228.51   248.32   329.48   350.73
                              398.28   401.96   408.78   456.04   479.00
                              528.89   552.56   575.63   602.21   613.29
                              634.75   710.22   721.28   765.60   782.19
                              842.41   849.97   874.29   898.44   958.10
                              989.87  1015.34  1059.16  1291.30  1443.19
                             1461.40  1465.96  1496.57  1511.44  1524.37
                             1561.60  1595.35  1601.64  1614.61  1633.88
                             1665.98  1704.88  1774.42  1804.82  1833.29
                             1861.65  1883.01  1922.96  1938.49  1955.98
                             1964.75  1969.42  1981.71  2008.14  2015.74
                             2026.14  2060.76  2083.55  2086.47  2171.05
                             2252.42  2314.70  2333.44  2498.51  2624.98
                             4254.74  4297.38  4326.92  4367.75  4385.01
                             4396.48  4492.14  5352.86  5435.43  5458.87
                             5515.77  5560.76  5563.23

 Zero-point correction=                           0.238043 (Hartree/Particle)
 Thermal correction to Energy=                    0.254198
 Thermal correction to Enthalpy=                  0.255143
 Thermal correction to Gibbs Free Energy=         0.194999
 Sum of electronic and zero-point Energies=           -839.847003
 Sum of electronic and thermal Energies=              -839.830848
 Sum of electronic and thermal Enthalpies=            -839.829903
 Sum of electronic and thermal Free Energies=         -839.890047

                     E (Thermal)             CV                S
                      KCal/Mol        Cal/Mol-Kelvin    Cal/Mol-Kelvin
 Total                  159.512             61.234            126.582
 Electronic               0.000              0.000              0.000
 Translational            0.889              2.981             42.015
 Rotational               0.889              2.981             32.363
 Vibrational            157.734             55.273             52.204
 Vibration     1          0.594              1.981              5.200
 Vibration     2          0.596              1.976              4.695
 Vibration     3          0.599              1.965              4.005
 Vibration     4          0.603              1.952              3.546
 Vibration     5          0.606              1.942              3.295
 Vibration     6          0.610              1.930              3.053
 Vibration     7          0.621              1.893              2.564
 Vibration     8          0.626              1.876              2.407
 Vibration     9          0.652              1.797              1.887
 Vibration    10          0.659              1.773              1.775
 Vibration    11          0.678              1.716              1.553
 Vibration    12          0.680              1.712              1.537
 Vibration    13          0.683              1.703              1.509
 Vibration    14          0.704              1.641              1.326
 Vibration    15          0.715              1.610              1.246
 Vibration    16          0.740              1.539              1.090
 Vibration    17          0.753              1.504              1.023
 Vibration    18          0.766              1.470              0.962
 Vibration    19          0.781              1.430              0.897
 Vibration    20          0.788              1.413              0.871
 Vibration    21          0.801              1.380              0.823
 Vibration    22          0.849              1.264              0.674
 Vibration    23          0.857              1.247              0.655
 Vibration    24          0.887              1.179              0.582
 Vibration    25          0.899              1.154              0.557
 Vibration    26          0.943              1.063              0.475
 Vibration    27          0.948              1.051              0.466
 Vibration    28          0.966              1.016              0.437

 Optimization completed.
    -- Stationary point found.
 Normal termination of Gaussian 09 at Sun Jun  5 00:53:43 2016.
