 Gaussian 09, Revision D.01,
 Gaussian 09:  AM64L-G09RevD.01 24-Apr-2013

 -------------------------------------------------------------------
 # opt=(TS, CalcFC, NoEigenTest, MaxCycle=500) Freq B3LYP/6-31G(d,p)
 -------------------------------------------------------------------

 ---------------------------
 glo_1w_Beta_B3LYP_6-31G_d_p
 ---------------------------
 Symbolic Z-matrix:
 Charge =  0 Multiplicity = 1

 SCF Done:  E(RB3LYP) =  -840.017836621     A.U. after   14 cycles
 SCF Done:  E(RB3LYP) =  -840.018044090     A.U. after   11 cycles
 SCF Done:  E(RB3LYP) =  -840.018044400     A.U. after    8 cycles
 SCF Done:  E(RB3LYP) =  -840.018044562     A.U. after    7 cycles
 Optimization completed.
    -- Stationary point found.
 Normal termination of Gaussian 09 at Sat Jun  4 21:13:02 2016.

 ----------------------------------------------------------------------
 #N Geom=AllCheck Guess=TCheck SCRF=Check GenChk RB3LYP/6-31G(d,p) Freq
 ----------------------------------------------------------------------

 Structure from the checkpoint file:  "/home/iawad/scratch/MAIN/PRO_Halides/direct/TsF/glo_1w_Beta/glo_1w_Beta_B3LYP_6-31G_d_p.chk"
 ---------------------------
 glo_1w_Beta_B3LYP_6-31G_d_p
 ---------------------------
 Charge =  0 Multiplicity = 1

                         Standard orientation:
 ---------------------------------------------------------------------
 Center     Atomic      Atomic             Coordinates (Angstroms)
 Number     Number       Type             X           Y           Z
 ---------------------------------------------------------------------
      1          6           0        1.866387   -0.745125   -0.837696
      2          8           0        1.341701    1.000788   -0.508042
      3          1           0        2.758241    0.552255    2.044213
      4          8           0        3.114968   -0.713607   -0.581673
      5          1           0        3.248103   -0.008292    0.465555
      6          8           0        3.011347    0.888680    1.173858
      7          1           0        2.060906    1.119464    0.481385
      8          6           0        0.908757   -1.457094    0.116617
      9          6           0       -0.569441   -1.081080   -0.069458
     10          6           0       -0.866654    0.365373    0.338639
     11          6           0       -0.030007    1.342607   -0.508703
     12          6           0       -0.142138    2.798543   -0.044840
     13          8           0       -1.516072    3.198984   -0.139550
     14          8           0        1.071381   -2.838030   -0.138897
     15          8           0       -1.288255   -2.017811    0.716339
     16          8           0       -2.262668    0.613402    0.149131
     17          1           0        1.572445   -0.807295   -1.894046
     18          1           0        1.209000   -1.213139    1.150731
     19          1           0        0.253073   -3.237134    0.205105
     20          1           0       -2.211080   -2.059179    0.378246
     21          1           0       -2.381123    1.580582    0.140186
     22          1           0       -0.608864    0.483879    1.404861
     23          1           0       -0.408136    1.285894   -1.540636
     24          1           0        0.497064    3.422357   -0.681500
     25          1           0        0.219079    2.879124    0.991419
     26          1           0       -1.618545    4.070879    0.261259
     27          8           0       -3.828883   -1.612709   -0.239988
     28          1           0       -4.419270   -1.677363    0.521804
     29          1           0       -0.829883   -1.194837   -1.134942
     30          1           0       -3.490583   -0.694120   -0.210409
 ---------------------------------------------------------------------

 SCF Done:  E(RB3LYP) =  -840.018044562     A.U. after    1 cycles

 The electronic state is 1-A.
 Alpha  occ. eigenvalues --  -19.19042 -19.16450 -19.16322 -19.15683 -19.15175
 Alpha  occ. eigenvalues --  -19.13974 -19.13575 -19.12516 -10.28877 -10.26059
 Alpha  occ. eigenvalues --  -10.25418 -10.24834 -10.24094 -10.23808  -1.06361
 Alpha  occ. eigenvalues --   -1.05537  -1.04028  -1.02643  -1.01004  -1.00429
 Alpha  occ. eigenvalues --   -0.99916  -0.99334  -0.78256  -0.76053  -0.69709
 Alpha  occ. eigenvalues --   -0.63869  -0.61375  -0.59456  -0.56708  -0.55412
 Alpha  occ. eigenvalues --   -0.53499  -0.52660  -0.51196  -0.51140  -0.49425
 Alpha  occ. eigenvalues --   -0.47458  -0.45939  -0.45580  -0.44865  -0.43392
 Alpha  occ. eigenvalues --   -0.42218  -0.40980  -0.40477  -0.39678  -0.38237
 Alpha  occ. eigenvalues --   -0.36773  -0.36318  -0.34891  -0.34437  -0.33049
 Alpha  occ. eigenvalues --   -0.30984  -0.30677  -0.30466  -0.28195  -0.27632
 Alpha  occ. eigenvalues --   -0.27043  -0.26383  -0.24988
 Alpha virt. eigenvalues --    0.00827   0.03821   0.04914   0.07143   0.09356
 Alpha virt. eigenvalues --    0.10887   0.11769   0.12782   0.13311   0.14668
 Alpha virt. eigenvalues --    0.15491   0.16051   0.16850   0.18130   0.18983

 Mulliken charges:
               1
     1  C    0.357839
     2  O   -0.628000
     3  H    0.314759
     4  O   -0.559735
     5  H    0.411228
     6  O   -0.661710
     7  H    0.407640
     8  C    0.190127
     9  C    0.125561
    10  C    0.186198
    11  C    0.160460
    12  C    0.030355
    13  O   -0.557634
    14  O   -0.559493
    15  O   -0.604825
    16  O   -0.601834
    17  H    0.107276
    18  H    0.047556
    19  H    0.324170
    20  H    0.332453
    21  H    0.339341
    22  H    0.068968
    23  H    0.107916
    24  H    0.121344
    25  H    0.093830
    26  H    0.325817
    27  O   -0.628840
    28  H    0.312380
    29  H    0.091214
    30  H    0.345639
 Sum of Mulliken charges =   0.00000

 Dipole moment (field-independent basis, Debye):
    X=             -3.9419    Y=              5.0405    Z=              3.1592  Tot=              7.1362
 Quadrupole moment (field-independent basis, Debye-Ang):
   XX=            -92.9194   YY=            -76.7270   ZZ=            -79.7399
   XY=             -1.7411   XZ=             -0.3430   YZ=              1.0518

  Exact polarizability: 112.278  -3.332 108.639   2.367   2.545  81.259
 Approx polarizability: 151.658  -6.582 143.409   5.415   4.436 125.865

 ******    1 imaginary frequencies (negative Signs) ******

                      1                      2                      3
                      A                      A                      A
 Frequencies --  -1386.1297                35.3098                53.9916
 Red. masses --      1.1112                 5.9846                 6.8601
 Frc consts  --      1.2580                 0.0044                 0.0118
 IR Inten    --    312.8431                 0.6075                 0.9969

                      4                      5                      6
                      A                      A                      A
 Frequencies --     79.4736                93.6887               116.8511
 Red. masses --      5.7506                 5.4072                 6.8059
 Frc consts  --      0.0214                 0.0280                 0.0548
 IR Inten    --      0.9438                 9.8560                 3.8909

                      7                      8                      9
                      A                      A                      A
 Frequencies --    152.4208               168.6095               189.3757
 Red. masses --      4.1511                 3.4366                 5.4632
 Frc consts  --      0.0568                 0.0576                 0.1154
 IR Inten    --     14.4869                 1.6167                 3.0794

                     10                     11                     12
                      A                      A                      A
 Frequencies --    202.0862               260.5955               265.4895
 Red. masses --      4.8417                 1.5849                 2.3681
 Frc consts  --      0.1165                 0.0634                 0.0983
 IR Inten    --     13.6830                48.0173                61.6579

                     13                     14                     15
                      A                      A                      A
 Frequencies --    279.0487               297.3396               301.9988
 Red. masses --      4.8500                 1.2339                 3.1452
 Frc consts  --      0.2225                 0.0643                 0.1690
 IR Inten    --     21.5526                60.4864                42.3986

                     16                     17                     18
                      A                      A                      A
 Frequencies --    329.1510               350.5607               379.7127
 Red. masses --      4.9064                 3.2438                 4.5367
 Frc consts  --      0.3132                 0.2349                 0.3854
 IR Inten    --      6.2170                35.5967                25.4932

                     19                     20                     21
                      A                      A                      A
 Frequencies --    386.0145               397.9093               427.0185
 Red. masses --      1.6726                 3.5703                 4.9897
 Frc consts  --      0.1468                 0.3331                 0.5361
 IR Inten    --    112.7448                 0.7101                15.3305

                     22                     23                     24
                      A                      A                      A
 Frequencies --    451.7541               502.0572               527.1483
 Red. masses --      5.1374                 5.0438                 1.9828
 Frc consts  --      0.6177                 0.7491                 0.3246
 IR Inten    --     14.6794                35.5081                 5.9539

                     25                     26                     27
                      A                      A                      A
 Frequencies --    531.4277               544.7134               548.8209
 Red. masses --      1.9133                 3.0042                 1.2849
 Frc consts  --      0.3184                 0.5252                 0.2280
 IR Inten    --     55.2341                26.3952                45.1342

                     28                     29                     30
                      A                      A                      A
 Frequencies --    573.6095               588.6899               611.6464
 Red. masses --      3.2484                 1.1478                 3.5412
 Frc consts  --      0.6297                 0.2344                 0.7805
 IR Inten    --    248.7677               152.3614                19.2708

                     31                     32                     33
                      A                      A                      A
 Frequencies --    639.7678               658.8750               676.4726
 Red. masses --      2.0040                 1.4430                 1.1540
 Frc consts  --      0.4833                 0.3691                 0.3111
 IR Inten    --     13.1170                35.7442               118.7836

                     34                     35                     36
                      A                      A                      A
 Frequencies --    711.7333               881.7786               913.5039
 Red. masses --      4.0304                 1.0818                 1.8115
 Frc consts  --      1.2029                 0.4956                 0.8906
 IR Inten    --     93.2279               185.8220                 1.5432

                     37                     38                     39
                      A                      A                      A
 Frequencies --   1003.8983              1033.3029              1053.7556
 Red. masses --      3.4949                 3.7370                 3.5552
 Frc consts  --      2.0752                 2.3509                 2.3259
 IR Inten    --      8.2313                81.3226               161.4784

                     40                     41                     42
                      A                      A                      A
 Frequencies --   1059.9052              1080.8265              1106.1954
 Red. masses --      4.1001                 1.8046                 2.4415
 Frc consts  --      2.7138                 1.2420                 1.7603
 IR Inten    --     96.8916               145.7466                49.1296

                     43                     44                     45
                      A                      A                      A
 Frequencies --   1113.9824              1116.2285              1130.6043
 Red. masses --      5.4853                 4.2616                 3.1279
 Frc consts  --      4.0105                 3.1284                 2.3558
 IR Inten    --    218.6565               189.3321                24.0668

                     46                     47                     48
                      A                      A                      A
 Frequencies --   1150.8119              1162.4214              1219.6482
 Red. masses --      2.5929                 2.6699                 1.2358
 Frc consts  --      2.0233                 2.1255                 1.0831
 IR Inten    --      9.5480                57.3059                44.5021

                     49                     50                     51
                      A                      A                      A
 Frequencies --   1246.5252              1252.1469              1270.3475
 Red. masses --      1.2566                 1.2202                 1.2065
 Frc consts  --      1.1504                 1.1272                 1.1472
 IR Inten    --     28.5956                52.2443               700.3127

                     52                     53                     54
                      A                      A                      A
 Frequencies --   1300.8203              1308.9556              1341.6274
 Red. masses --      1.1045                 1.1546                 1.1708
 Frc consts  --      1.1012                 1.1655                 1.2417
 IR Inten    --    689.0442                 9.0367                49.2310

                     55                     56                     57
                      A                      A                      A
 Frequencies --   1352.0464              1370.1403              1382.7156
 Red. masses --      1.0602                 1.2323                 1.2857
 Frc consts  --      1.1419                 1.3630                 1.4483
 IR Inten    --     48.1255                 8.1513                63.3962

                     58                     59                     60
                      A                      A                      A
 Frequencies --   1385.7467              1403.0456              1424.3792
 Red. masses --      1.1776                 1.2911                 1.4728
 Frc consts  --      1.3323                 1.4975                 1.7606
 IR Inten    --    132.7799               590.2690               384.6327

                     61                     62                     63
                      A                      A                      A
 Frequencies --   1430.6372              1444.5742              1474.7797
 Red. masses --      1.3719                 1.4417                 1.4359
 Frc consts  --      1.6544                 1.7726                 1.8400
 IR Inten    --    499.0192                28.2652                17.9353

                     64                     65                     66
                      A                      A                      A
 Frequencies --   1509.0747              1526.4009              1535.0841
 Red. masses --      1.2548                 1.2499                 1.1011
 Frc consts  --      1.6836                 1.7157                 1.5288
 IR Inten    --     50.2355               405.5345                16.2743

                     67                     68                     69
                      A                      A                      A
 Frequencies --   1581.1213              1654.2076              1679.4305
 Red. masses --      1.4232                 1.6523                 1.0751
 Frc consts  --      2.0962                 2.6639                 1.7866
 IR Inten    --     43.2558               407.4398                55.7521

                     70                     71                     72
                      A                      A                      A
 Frequencies --   1895.9552              2961.4174              2975.3815
 Red. masses --      1.0214                 1.0817                 1.0812
 Frc consts  --      2.1633                 5.5891                 5.6393
 IR Inten    --     52.3067                28.5958                26.4760

                     73                     74                     75
                      A                      A                      A
 Frequencies --   2992.2307              3004.0552              3019.3547
 Red. masses --      1.0848                 1.0669                 1.0797
 Frc consts  --      5.7227                 5.6725                 5.7993
 IR Inten    --     56.9828                17.3537                79.8169

                     76                     77                     78
                      A                      A                      A
 Frequencies --   3060.6192              3070.5752              3470.8190
 Red. masses --      1.0901                 1.1032                 1.0683
 Frc consts  --      6.0164                 6.1283                 7.5821
 IR Inten    --     49.9506                47.0643               490.9572

                     79                     80                     81
                      A                      A                      A
 Frequencies --   3609.8388              3663.7850              3708.0024
 Red. masses --      1.0589                 1.0657                 1.0645
 Frc consts  --      8.1296                 8.4282                 8.6230
 IR Inten    --    726.1687               207.7614                71.5342

                     82                     83                     84
                      A                      A                      A
 Frequencies --   3835.6952              3836.0858              3862.5211
 Red. masses --      1.0668                 1.0656                 1.0696
 Frc consts  --      9.2472                 9.2385                 9.4018
 IR Inten    --     33.5939                36.9329                69.4447

 - Thermochemistry -
 -------------------
 Temperature   298.150 Kelvin.  Pressure   1.00000 Atm.
 Atom     1 has atomic number  6 and mass  12.00000

 Molecular mass:   216.08452 amu.
 Principal axes and moments of inertia in atomic units:
                           1         2         3
     Eigenvalues --  2649.118153348.347795482.34759
           X            0.99941   0.03396   0.00501
           Y           -0.03398   0.99942   0.00261
           Z           -0.00492  -0.00278   0.99998
 This molecule is an asymmetric top.
 Rotational symmetry number  1.
 Warning -- assumption of classical behavior for rotation
           may cause significant error
 Rotational temperatures (Kelvin)      0.03270     0.02587     0.01580
 Rotational constants (GHZ):           0.68126     0.53899     0.32919
    1 imaginary frequencies ignored.
 Zero-point vibrational energy     635219.3 (Joules/Mol)
                                  151.82105 (Kcal/Mol)
 Warning -- explicit consideration of  29 degrees of freedom as
           vibrations may cause significant error
 Vibrational temperatures:     50.80    77.68   114.34   134.80   168.12
          (Kelvin)            219.30   242.59   272.47   290.76   374.94
                              381.98   401.49   427.80   434.51   473.57
                              504.38   546.32   555.39   572.50   614.38
                              649.97   722.35   758.45   764.60   783.72
                              789.63   825.30   846.99   880.02   920.48
                              947.97   973.29  1024.02  1268.68  1314.33
                             1444.38  1486.69  1516.12  1524.97  1555.07
                             1591.57  1602.77  1606.00  1626.69  1655.76
                             1672.46  1754.80  1793.47  1801.56  1827.74
                             1871.59  1883.29  1930.30  1945.29  1971.32
                             1989.42  1993.78  2018.67  2049.36  2058.37
                             2078.42  2121.88  2171.22  2196.15  2208.64
                             2274.88  2380.03  2416.32  2727.85  4260.81
                             4280.91  4305.15  4322.16  4344.17  4403.54
                             4417.87  4993.73  5193.75  5271.36  5334.98
                             5518.70  5519.27  5557.30

 Zero-point correction=                           0.241942 (Hartree/Particle)
 Thermal correction to Energy=                    0.258139
 Thermal correction to Enthalpy=                  0.259083
 Thermal correction to Gibbs Free Energy=         0.199016
 Sum of electronic and zero-point Energies=           -839.776102
 Sum of electronic and thermal Energies=              -839.759906
 Sum of electronic and thermal Enthalpies=            -839.758961
 Sum of electronic and thermal Free Energies=         -839.819029

                     E (Thermal)             CV                S
                      KCal/Mol        Cal/Mol-Kelvin    Cal/Mol-Kelvin
 Total                  161.985             61.453            126.423
 Electronic               0.000              0.000              0.000
 Translational            0.889              2.981             42.015
 Rotational               0.889              2.981             32.253
 Vibrational            160.207             55.491             52.155
 Vibration     1          0.594              1.982              5.506
 Vibration     2          0.596              1.976              4.666
 Vibration     3          0.600              1.963              3.904
 Vibration     4          0.603              1.954              3.582
 Vibration     5          0.608              1.935              3.152
 Vibration     6          0.619              1.900              2.642
 Vibration     7          0.625              1.881              2.451
 Vibration     8          0.633              1.854              2.234
 Vibration     9          0.639              1.837              2.114
 Vibration    10          0.669              1.745              1.658
 Vibration    11          0.671              1.736              1.625
 Vibration    12          0.679              1.712              1.539
 Vibration    13          0.691              1.679              1.432
 Vibration    14          0.694              1.670              1.406
 Vibration    15          0.712              1.617              1.264
 Vibration    16          0.727              1.574              1.164
 Vibration    17          0.750              1.513              1.040
 Vibration    18          0.755              1.500              1.016
 Vibration    19          0.764              1.475              0.970
 Vibration    20          0.789              1.411              0.868
 Vibration    21          0.810              1.357              0.790
 Vibration    22          0.857              1.245              0.653
 Vibration    23          0.882              1.190              0.594
 Vibration    24          0.886              1.180              0.584
 Vibration    25          0.900              1.151              0.555
 Vibration    26          0.904              1.142              0.547
 Vibration    27          0.930              1.088              0.497
 Vibration    28          0.946              1.056              0.470
 Vibration    29          0.971              1.007              0.430

 Optimization completed.
    -- Stationary point found.
 Normal termination of Gaussian 09 at Sat Jun  4 21:33:26 2016.
