 Gaussian 09, Revision D.01,
 Gaussian 09:  AM64L-G09RevD.01 24-Apr-2013

 -------------------------------------------------------------------
 # opt=(TS, CalcFC, NoEigenTest, MaxCycle=500) Freq B3LYP/6-31G(d,p)
 -------------------------------------------------------------------

 ----------------------------
 glo_2w_ALPHA_B3LYP_6-31G_d_p
 ----------------------------
 Symbolic Z-matrix:
 Charge =  0 Multiplicity = 1

 SCF Done:  E(RB3LYP) =  -840.032852420     A.U. after   14 cycles
 SCF Done:  E(RB3LYP) =  -840.033153552     A.U. after   11 cycles
 SCF Done:  E(RB3LYP) =  -840.033155918     A.U. after    9 cycles
 SCF Done:  E(RB3LYP) =  -840.033156088     A.U. after    7 cycles
 Optimization completed.
    -- Stationary point found.
 Normal termination of Gaussian 09 at Sat Jun  4 21:25:20 2016.

 ----------------------------------------------------------------------
 #N Geom=AllCheck Guess=TCheck SCRF=Check GenChk RB3LYP/6-31G(d,p) Freq
 ----------------------------------------------------------------------

 Structure from the checkpoint file:  "/home/iawad/scratch/MAIN/PRO_Halides/direct/TsF/glo_2w_ALPHA/glo_2w_ALPHA_B3LYP_6-31G_d_p.chk"
 ----------------------------
 glo_2w_ALPHA_B3LYP_6-31G_d_p
 ----------------------------
 Charge =  0 Multiplicity = 1

                         Standard orientation:
 ---------------------------------------------------------------------
 Center     Atomic      Atomic             Coordinates (Angstroms)
 Number     Number       Type             X           Y           Z
 ---------------------------------------------------------------------
      1          6           0        0.121846   -1.479652   -0.312197
      2          8           0       -0.611550   -0.041512   -0.909409
      3          1           0       -3.292153    0.313036   -0.478949
      4          1           0       -2.822115   -3.045337    0.830466
      5          8           0       -2.621692   -2.121083    1.024671
      6          1           0       -2.956437   -1.282249    0.015341
      7          8           0       -2.990400   -0.557603   -0.812987
      8          1           0       -1.903832   -0.334864   -0.953025
      9          6           0        1.580425   -1.110212   -0.609421
     10          6           0        1.982959    0.105218    0.224762
     11          6           0        1.138653    1.348301   -0.073258
     12          6           0       -0.361770    1.023594    0.004059
     13          1           0        1.662709   -0.851970   -1.676283
     14          1           0        1.378451    1.704664   -1.081250
     15          1           0       -0.587285    0.684061    1.031103
     16          1           0        1.836917   -0.168804    1.282771
     17          8           0        2.394158   -2.226301   -0.295344
     18          8           0        3.359705    0.355597   -0.042702
     19          8           0        1.520191    2.415721    0.803972
     20          1           0        3.584725    1.181082    0.409596
     21          1           0        3.304530   -1.895998   -0.298013
     22          1           0        1.358266    2.113186    1.710357
     23          6           0       -1.247742    2.225622   -0.320124
     24          8           0       -2.623598    2.031595    0.062827
     25          1           0       -1.259317    2.396785   -1.399882
     26          1           0       -0.838865    3.116715    0.168834
     27          1           0       -2.672123    2.092913    1.026482
     28          1           0       -0.311469   -2.139225   -1.084683
     29          8           0       -0.204959   -1.674951    0.915004
     30          1           0       -1.543074   -2.012911    1.045952
 ---------------------------------------------------------------------

 SCF Done:  E(RB3LYP) =  -840.033156088     A.U. after    1 cycles

 The electronic state is 1-A.
 Alpha  occ. eigenvalues --  -19.18584 -19.17984 -19.17069 -19.15441 -19.15125
 Alpha  occ. eigenvalues --  -19.14501 -19.13104 -19.09645 -10.27073 -10.25223
 Alpha  occ. eigenvalues --  -10.24632 -10.24556 -10.23375 -10.22612  -1.06349
 Alpha  occ. eigenvalues --   -1.04813  -1.04534  -1.02665  -1.01874  -1.00094
 Alpha  occ. eigenvalues --   -0.99835  -0.96679  -0.77918  -0.75502  -0.69124
 Alpha  occ. eigenvalues --   -0.63610  -0.61983  -0.56810  -0.56134  -0.54548
 Alpha  occ. eigenvalues --   -0.53395  -0.52879  -0.51724  -0.50741  -0.49453
 Alpha  occ. eigenvalues --   -0.47503  -0.46871  -0.45004  -0.44030  -0.43288
 Alpha  occ. eigenvalues --   -0.41744  -0.41137  -0.39751  -0.38848  -0.37357
 Alpha  occ. eigenvalues --   -0.36701  -0.35982  -0.34945  -0.34298  -0.33422
 Alpha  occ. eigenvalues --   -0.31617  -0.31249  -0.30386  -0.28396  -0.26487
 Alpha  occ. eigenvalues --   -0.25597  -0.25385  -0.23467
 Alpha virt. eigenvalues --    0.03966   0.04827   0.06279   0.07826   0.09968
 Alpha virt. eigenvalues --    0.10976   0.12379   0.12881   0.13582   0.14329
 Alpha virt. eigenvalues --    0.14694   0.15606   0.16186   0.18370   0.19043

 Mulliken charges:
               1
     1  C    0.338384
     2  O   -0.632073
     3  H    0.341432
     4  H    0.312511
     5  O   -0.698883
     6  H    0.407250
     7  O   -0.645343
     8  H    0.429860
     9  C    0.203216
    10  C    0.129291
    11  C    0.143766
    12  C    0.151606
    13  H    0.080165
    14  H    0.113811
    15  H    0.080663
    16  H    0.093659
    17  O   -0.560501
    18  O   -0.573102
    19  O   -0.556898
    20  H    0.313736
    21  H    0.320133
    22  H    0.304915
    23  C    0.019677
    24  O   -0.557497
    25  H    0.132092
    26  H    0.120819
    27  H    0.319571
    28  H    0.067323
    29  O   -0.604895
    30  H    0.405312
 Sum of Mulliken charges =   0.00000

 Dipole moment (field-independent basis, Debye):
    X=             -1.7381    Y=              2.6832    Z=              1.2638  Tot=              3.4377
 Quadrupole moment (field-independent basis, Debye-Ang):
   XX=            -81.2237   YY=            -83.1105   ZZ=            -82.4355
   XY=              4.7501   XZ=             -0.9785   YZ=              6.7316

  Exact polarizability: 110.129   1.607 104.830  -1.001   0.352  81.741
 Approx polarizability: 138.695   2.282 140.929  -0.785  -3.359 134.390

 ******    1 imaginary frequencies (negative Signs) ******

                      1                      2                      3
                      A                      A                      A
 Frequencies --   -653.8687                54.3268                74.9717
 Red. masses --      1.7526                 5.8976                 4.9183
 Frc consts  --      0.4415                 0.0103                 0.0163
 IR Inten    --     93.3083                 2.8243                 1.7487

                      4                      5                      6
                      A                      A                      A
 Frequencies --     92.3330               117.9942               138.3236
 Red. masses --      6.0073                 5.6723                 6.9844
 Frc consts  --      0.0302                 0.0465                 0.0787
 IR Inten    --      0.9872                 2.9708                 6.1183

                      7                      8                      9
                      A                      A                      A
 Frequencies --    146.9845               199.4315               214.6228
 Red. masses --      5.3101                 5.1907                 3.8090
 Frc consts  --      0.0676                 0.1216                 0.1034
 IR Inten    --      1.4149                 6.3652                11.0280

                     10                     11                     12
                      A                      A                      A
 Frequencies --    237.0925               248.5892               259.1800
 Red. masses --      3.8364                 3.2833                 4.5418
 Frc consts  --      0.1271                 0.1195                 0.1798
 IR Inten    --      7.3222                25.5308                24.0252

                     13                     14                     15
                      A                      A                      A
 Frequencies --    273.7919               319.2085               331.5336
 Red. masses --      6.0958                 2.6639                 4.1145
 Frc consts  --      0.2692                 0.1599                 0.2665
 IR Inten    --     10.9424                43.8119                29.4169

                     16                     17                     18
                      A                      A                      A
 Frequencies --    354.2820               364.3324               377.0182
 Red. masses --      1.9938                 1.8278                 1.4248
 Frc consts  --      0.1474                 0.1429                 0.1193
 IR Inten    --     46.6337                28.4036               106.4557

                     19                     20                     21
                      A                      A                      A
 Frequencies --    405.0955               412.3689               436.8287
 Red. masses --      1.2086                 3.8717                 1.1735
 Frc consts  --      0.1169                 0.3879                 0.1319
 IR Inten    --     52.8664                42.4755                83.5887

                     22                     23                     24
                      A                      A                      A
 Frequencies --    456.7321               467.6065               504.5809
 Red. masses --      1.2540                 4.4370                 4.8044
 Frc consts  --      0.1541                 0.5716                 0.7207
 IR Inten    --    155.4866                77.8597               139.7950

                     25                     26                     27
                      A                      A                      A
 Frequencies --    509.5139               555.6287               583.0140
 Red. masses --      5.3170                 3.9921                 3.8684
 Frc consts  --      0.8133                 0.7261                 0.7747
 IR Inten    --     70.0278                93.5781                39.0255

                     28                     29                     30
                      A                      A                      A
 Frequencies --    612.1064               629.6308               680.6718
 Red. masses --      2.8174                 1.1354                 5.6415
 Frc consts  --      0.6219                 0.2652                 1.5400
 IR Inten    --     39.0864                62.0412                45.7692

                     31                     32                     33
                      A                      A                      A
 Frequencies --    723.2462               778.4454               829.5296
 Red. masses --      1.2345                 4.5125                 1.0909
 Frc consts  --      0.3805                 1.6111                 0.4423
 IR Inten    --    124.2127                97.8867                67.2052

                     34                     35                     36
                      A                      A                      A
 Frequencies --    881.4453               925.4882               944.3776
 Red. masses --      2.3306                 2.0635                 2.1610
 Frc consts  --      1.0669                 1.0414                 1.1355
 IR Inten    --     69.7860               127.3035               187.6614

                     37                     38                     39
                      A                      A                      A
 Frequencies --    989.8150              1014.7146              1057.3281
 Red. masses --      5.1690                 3.2710                 3.1234
 Frc consts  --      2.9838                 1.9843                 2.0573
 IR Inten    --     91.9880                68.5702                12.6626

                     40                     41                     42
                      A                      A                      A
 Frequencies --   1067.7614              1070.6239              1114.9140
 Red. masses --      3.0408                 2.2402                 3.1943
 Frc consts  --      2.0426                 1.5129                 2.3394
 IR Inten    --     79.0099                27.5994                87.8211

                     43                     44                     45
                      A                      A                      A
 Frequencies --   1118.0512              1128.2717              1137.5190
 Red. masses --      3.5588                 3.0361                 2.8461
 Frc consts  --      2.6210                 2.2772                 2.1698
 IR Inten    --    176.1918                 5.8282                 6.5302

                     46                     47                     48
                      A                      A                      A
 Frequencies --   1187.6676              1204.1434              1219.0023
 Red. masses --      1.1909                 1.2865                 1.2917
 Frc consts  --      0.9897                 1.0990                 1.1309
 IR Inten    --     47.4164                46.0831                57.8678

                     49                     50                     51
                      A                      A                      A
 Frequencies --   1235.4158              1250.1940              1274.3691
 Red. masses --      1.3018                 1.2598                 1.1992
 Frc consts  --      1.1706                 1.1601                 1.1475
 IR Inten    --     17.9936                17.9944                37.5252

                     52                     53                     54
                      A                      A                      A
 Frequencies --   1276.9555              1339.5929              1349.3149
 Red. masses --      1.2428                 1.3949                 1.2112
 Frc consts  --      1.1940                 1.4748                 1.2993
 IR Inten    --     17.4828                55.8031                83.3385

                     55                     56                     57
                      A                      A                      A
 Frequencies --   1365.2424              1373.1324              1402.5082
 Red. masses --      1.2585                 1.2714                 1.2553
 Frc consts  --      1.3820                 1.4124                 1.4548
 IR Inten    --     34.3761                20.6623                23.7357

                     58                     59                     60
                      A                      A                      A
 Frequencies --   1407.3836              1411.4413              1421.2745
 Red. masses --      1.2832                 1.1702                 1.2867
 Frc consts  --      1.4975                 1.3735                 1.5314
 IR Inten    --     74.1243               126.7106                31.3612

                     61                     62                     63
                      A                      A                      A
 Frequencies --   1427.5289              1439.3480              1444.6930
 Red. masses --      1.4532                 1.4371                 1.7094
 Frc consts  --      1.7448                 1.7542                 2.1021
 IR Inten    --     35.6690                56.0688                64.2765

                     64                     65                     66
                      A                      A                      A
 Frequencies --   1509.8031              1532.8048              1584.0004
 Red. masses --      1.0857                 1.6196                 1.5175
 Frc consts  --      1.4581                 2.2419                 2.2432
 IR Inten    --      3.1306              1138.4693               528.6871

                     67                     68                     69
                      A                      A                      A
 Frequencies --   1640.4526              1698.9531              1847.4101
 Red. masses --      1.0664                 1.0721                 1.0334
 Frc consts  --      1.6909                 1.8232                 2.0779
 IR Inten    --     69.8684               890.2659                24.1542

                     70                     71                     72
                      A                      A                      A
 Frequencies --   1907.2791              2122.6974              2962.2619
 Red. masses --      1.0806                 1.0819                 1.0823
 Frc consts  --      2.3161                 2.8722                 5.5954
 IR Inten    --   2619.7345              2218.6582                40.4268

                     73                     74                     75
                      A                      A                      A
 Frequencies --   2965.6088              2989.1390              3009.1799
 Red. masses --      1.0860                 1.0816                 1.0853
 Frc consts  --      5.6274                 5.6939                 5.7904
 IR Inten    --     85.9447                11.3879                73.7322

                     76                     77                     78
                      A                      A                      A
 Frequencies --   3062.6784              3081.0272              3127.2474
 Red. masses --      1.0609                 1.0861                 1.1062
 Frc consts  --      5.8633                 6.0745                 6.3737
 IR Inten    --     20.8984                24.4866                14.7648

                     79                     80                     81
                      A                      A                      A
 Frequencies --   3616.3836              3772.0783              3789.8937
 Red. masses --      1.0627                 1.0658                 1.0656
 Frc consts  --      8.1887                 8.9350                 9.0179
 IR Inten    --    270.4371                12.2403                36.7578

                     82                     83                     84
                      A                      A                      A
 Frequencies --   3796.9062              3812.5271              3856.0242
 Red. masses --      1.0659                 1.0664                 1.0652
 Frc consts  --      9.0534                 9.1326                 9.3315
 IR Inten    --     32.0408                28.0985                39.9680

 - Thermochemistry -
 -------------------
 Temperature   298.150 Kelvin.  Pressure   1.00000 Atm.
 Atom     1 has atomic number  6 and mass  12.00000

 Molecular mass:   216.08452 amu.
 Principal axes and moments of inertia in atomic units:
                           1         2         3
     Eigenvalues --  2290.765333428.901795073.51556
           X            0.99985   0.01734  -0.00141
           Y           -0.01734   0.99984   0.00406
           Z            0.00148  -0.00404   0.99999
 This molecule is an asymmetric top.
 Rotational symmetry number  1.
 Warning -- assumption of classical behavior for rotation
           may cause significant error
 Rotational temperatures (Kelvin)      0.03781     0.02526     0.01707
 Rotational constants (GHZ):           0.78783     0.52633     0.35572
    1 imaginary frequencies ignored.
 Zero-point vibrational energy     637327.8 (Joules/Mol)
                                  152.32500 (Kcal/Mol)
 Warning -- explicit consideration of  27 degrees of freedom as
           vibrations may cause significant error
 Vibrational temperatures:     78.16   107.87   132.85   169.77   199.02
          (Kelvin)            211.48   286.94   308.79   341.12   357.66
                              372.90   393.93   459.27   477.00   509.73
                              524.19   542.44   582.84   593.31   628.50
                              657.13   672.78   725.98   733.08   799.42
                              838.83   880.68   905.90   979.33  1040.59
                             1120.01  1193.51  1268.20  1331.57  1358.75
                             1424.12  1459.95  1521.26  1536.27  1540.39
                             1604.11  1608.62  1623.33  1636.63  1708.79
                             1732.49  1753.87  1777.49  1798.75  1833.53
                             1837.25  1927.37  1941.36  1964.28  1975.63
                             2017.89  2024.91  2030.75  2044.89  2053.89
                             2070.90  2078.59  2172.27  2205.36  2279.02
                             2360.24  2444.41  2658.01  2744.15  3054.08
                             4262.03  4266.84  4300.70  4329.53  4406.51
                             4432.91  4499.41  5203.16  5427.17  5452.80
                             5462.89  5485.37  5547.95

 Zero-point correction=                           0.242745 (Hartree/Particle)
 Thermal correction to Energy=                    0.258247
 Thermal correction to Enthalpy=                  0.259191
 Thermal correction to Gibbs Free Energy=         0.201357
 Sum of electronic and zero-point Energies=           -839.790411
 Sum of electronic and thermal Energies=              -839.774909
 Sum of electronic and thermal Enthalpies=            -839.773965
 Sum of electronic and thermal Free Energies=         -839.831799

                     E (Thermal)             CV                S
                      KCal/Mol        Cal/Mol-Kelvin    Cal/Mol-Kelvin
 Total                  162.052             59.658            121.722
 Electronic               0.000              0.000              0.000
 Translational            0.889              2.981             42.015
 Rotational               0.889              2.981             32.055
 Vibrational            160.275             53.696             47.652
 Vibration     1          0.596              1.976              4.653
 Vibration     2          0.599              1.966              4.018
 Vibration     3          0.602              1.955              3.610
 Vibration     4          0.608              1.934              3.133
 Vibration     5          0.614              1.915              2.827
 Vibration     6          0.617              1.906              2.711
 Vibration     7          0.638              1.841              2.138
 Vibration     8          0.645              1.819              2.004
 Vibration     9          0.656              1.784              1.825
 Vibration    10          0.662              1.765              1.741
 Vibration    11          0.668              1.747              1.667
 Vibration    12          0.676              1.722              1.572
 Vibration    13          0.705              1.637              1.314
 Vibration    14          0.714              1.613              1.253
 Vibration    15          0.730              1.566              1.147
 Vibration    16          0.738              1.546              1.104
 Vibration    17          0.748              1.519              1.051
 Vibration    18          0.770              1.459              0.944
 Vibration    19          0.776              1.443              0.918
 Vibration    20          0.797              1.390              0.837
 Vibration    21          0.815              1.346              0.776
 Vibration    22          0.825              1.322              0.744
 Vibration    23          0.860              1.240              0.647
 Vibration    24          0.865              1.229              0.635
 Vibration    25          0.911              1.127              0.533
 Vibration    26          0.940              1.068              0.480
 Vibration    27          0.971              1.006              0.429

 Optimization completed.
    -- Stationary point found.
 Normal termination of Gaussian 09 at Sat Jun  4 21:46:32 2016.
