 Gaussian 09, Revision D.01,
 Gaussian 09:  AM64L-G09RevD.01 24-Apr-2013

 --------------------------------------------------------------------
 # opt=(TS, CalcFC, NoEigenTest, MaxCycle=500) Freq B3LYP/6-31+G(d,p)
 --------------------------------------------------------------------

 ----------------------------
 glo_1w_Beta_B3LYP_6-31+G_d_p
 ----------------------------
 Symbolic Z-matrix:
 Charge =  0 Multiplicity = 1

 SCF Done:  E(RB3LYP) =  -840.073070639     A.U. after   13 cycles
 SCF Done:  E(RB3LYP) =  -840.074653557     A.U. after   11 cycles
 SCF Done:  E(RB3LYP) =  -840.074929520     A.U. after   11 cycles
 SCF Done:  E(RB3LYP) =  -840.074996081     A.U. after   11 cycles
 SCF Done:  E(RB3LYP) =  -840.075000428     A.U. after   10 cycles
 SCF Done:  E(RB3LYP) =  -840.075001010     A.U. after    8 cycles
 SCF Done:  E(RB3LYP) =  -840.075001195     A.U. after    8 cycles
 SCF Done:  E(RB3LYP) =  -840.075001203     A.U. after    7 cycles
 SCF Done:  E(RB3LYP) =  -840.075001227     A.U. after    8 cycles
 Optimization completed.
    -- Stationary point found.
 Normal termination of Gaussian 09 at Sat Jun  4 23:14:38 2016.

 ----------------------------------------------------------------------
 #N Geom=AllCheck Guess=TCheck SCRF=Check GenChk RB3LYP/6-31+G(d,p) Fre
 q
 ----------------------------------------------------------------------

 Structure from the checkpoint file:  "/home/iawad/scratch/MAIN/PRO_Halides/direct/TsF/glo_1w_Beta/glo_1w_Beta_B3LYP_6-31+G_d_p.chk"
 ----------------------------
 glo_1w_Beta_B3LYP_6-31+G_d_p
 ----------------------------
 Charge =  0 Multiplicity = 1

                         Standard orientation:
 ---------------------------------------------------------------------
 Center     Atomic      Atomic             Coordinates (Angstroms)
 Number     Number       Type             X           Y           Z
 ---------------------------------------------------------------------
      1          6           0        1.808679   -0.856242   -0.821522
      2          8           0        1.389469    0.896821   -0.506383
      3          1           0        2.998887    0.596153    2.015641
      4          8           0        3.061804   -0.901319   -0.563695
      5          1           0        3.286001   -0.147846    0.430680
      6          8           0        3.138586    0.809099    1.083640
      7          1           0        2.142381    1.043012    0.434388
      8          6           0        0.813209   -1.516404    0.133479
      9          6           0       -0.643753   -1.058322   -0.049446
     10          6           0       -0.855973    0.410205    0.338796
     11          6           0        0.039148    1.332675   -0.511593
     12          6           0        0.036248    2.793473   -0.045880
     13          8           0       -1.312478    3.286445   -0.108033
     14          8           0        0.908364   -2.907202   -0.129231
     15          8           0       -1.408512   -1.939539    0.763348
     16          8           0       -2.238230    0.732500    0.128755
     17          1           0        1.519830   -0.907184   -1.879083
     18          1           0        1.128050   -1.304396    1.168209
     19          1           0        0.098369   -3.298136    0.239712
     20          1           0       -2.339761   -1.941165    0.457328
     21          1           0       -2.322537    1.702326    0.141835
     22          1           0       -0.612588    0.527975    1.406953
     23          1           0       -0.331527    1.298913   -1.546310
     24          1           0        0.693953    3.375159   -0.701545
     25          1           0        0.417731    2.853206    0.983208
     26          1           0       -1.346309    4.195548    0.214554
     27          8           0       -3.941868   -1.410559   -0.247985
     28          1           0       -4.748912   -1.481873    0.275120
     29          1           0       -0.927330   -1.182057   -1.106759
     30          1           0       -3.618666   -0.491912   -0.160261
 ---------------------------------------------------------------------

 SCF Done:  E(RB3LYP) =  -840.075001227     A.U. after    1 cycles

 The electronic state is 1-A.
 Alpha  occ. eigenvalues --  -19.20663 -19.18137 -19.17964 -19.17831 -19.17214
 Alpha  occ. eigenvalues --  -19.15966 -19.15717 -19.14081 -10.30331 -10.27258
 Alpha  occ. eigenvalues --  -10.26965 -10.26301 -10.25562 -10.25232  -1.07725
 Alpha  occ. eigenvalues --   -1.06873  -1.05465  -1.04159  -1.02535  -1.01943
 Alpha  occ. eigenvalues --   -1.01455  -1.00909  -0.79743  -0.77511  -0.71145
 Alpha  occ. eigenvalues --   -0.65465  -0.62919  -0.60824  -0.58077  -0.56934
 Alpha  occ. eigenvalues --   -0.54979  -0.54397  -0.52887  -0.52670  -0.50917
 Alpha  occ. eigenvalues --   -0.48825  -0.47352  -0.47137  -0.46251  -0.44773
 Alpha  occ. eigenvalues --   -0.43571  -0.42195  -0.41852  -0.41008  -0.39922
 Alpha  occ. eigenvalues --   -0.38242  -0.37525  -0.36206  -0.35875  -0.34510
 Alpha  occ. eigenvalues --   -0.32738  -0.32470  -0.32148  -0.29975  -0.29387
 Alpha  occ. eigenvalues --   -0.28824  -0.28091  -0.26574
 Alpha virt. eigenvalues --   -0.03064  -0.00954  -0.00504   0.00785   0.01328
 Alpha virt. eigenvalues --    0.02889   0.03647   0.04185   0.04623   0.05457
 Alpha virt. eigenvalues --    0.06071   0.06921   0.07823   0.08882   0.09082

 Mulliken charges:
               1
     1  C    0.185317
     2  O   -0.586909
     3  H    0.383773
     4  O   -0.522310
     5  H    0.495096
     6  O   -0.854825
     7  H    0.541080
     8  C    0.120470
     9  C    0.083576
    10  C    0.060730
    11  C   -0.168653
    12  C    0.012694
    13  O   -0.608241
    14  O   -0.498918
    15  O   -0.617682
    16  O   -0.649274
    17  H    0.145143
    18  H    0.116500
    19  H    0.377287
    20  H    0.432608
    21  H    0.419920
    22  H    0.127633
    23  H    0.153903
    24  H    0.158306
    25  H    0.136804
    26  H    0.381932
    27  O   -0.776235
    28  H    0.377086
    29  H    0.144226
    30  H    0.428963
 Sum of Mulliken charges =   0.00000

 Dipole moment (field-independent basis, Debye):
    X=             -3.9947    Y=              5.6220    Z=              2.9716  Tot=              7.5096
 Quadrupole moment (field-independent basis, Debye-Ang):
   XX=            -94.1311   YY=            -79.6745   ZZ=            -83.0328
   XY=              1.0509   XZ=              1.7322   YZ=              1.1888

  Exact polarizability: 131.109  -2.796 125.300   4.073   2.518  97.071
 Approx polarizability: 167.845  -6.042 160.912   7.382   4.216 147.577

 ******    1 imaginary frequencies (negative Signs) ******

                      1                      2                      3
                      A                      A                      A
 Frequencies --  -1401.0959                36.4473                55.4503
 Red. masses --      1.1081                 5.5533                 6.7158
 Frc consts  --      1.2817                 0.0043                 0.0122
 IR Inten    --    349.9504                 0.7735                 1.7316

                      4                      5                      6
                      A                      A                      A
 Frequencies --     77.7135                87.3150               103.4346
 Red. masses --      6.3886                 4.5571                 7.1478
 Frc consts  --      0.0227                 0.0205                 0.0451
 IR Inten    --      3.6286                11.7858                 2.5991

                      7                      8                      9
                      A                      A                      A
 Frequencies --    141.8343               158.0259               175.6117
 Red. masses --      4.2837                 3.4450                 5.7989
 Frc consts  --      0.0508                 0.0507                 0.1054
 IR Inten    --     17.8911                 0.6052                 0.2041

                     10                     11                     12
                      A                      A                      A
 Frequencies --    194.2343               256.5560               269.2436
 Red. masses --      4.3506                 2.6564                 3.0964
 Frc consts  --      0.0967                 0.1030                 0.1323
 IR Inten    --     16.8230                40.4103                22.3955

                     13                     14                     15
                      A                      A                      A
 Frequencies --    273.5955               281.8805               300.4927
 Red. masses --      1.2201                 1.7856                 4.1407
 Frc consts  --      0.0538                 0.0836                 0.2203
 IR Inten    --    120.2931                83.1353                51.2693

                     16                     17                     18
                      A                      A                      A
 Frequencies --    322.3041               346.5244               366.5497
 Red. masses --      4.4941                 3.9397                 4.7454
 Frc consts  --      0.2751                 0.2787                 0.3757
 IR Inten    --     29.7735                15.6412                19.7792

                     19                     20                     21
                      A                      A                      A
 Frequencies --    384.8815               395.8571               420.8020
 Red. masses --      1.5198                 3.1155                 4.6516
 Frc consts  --      0.1326                 0.2876                 0.4853
 IR Inten    --     87.3547                 3.5146                10.4110

                     22                     23                     24
                      A                      A                      A
 Frequencies --    446.7371               490.4720               493.8916
 Red. masses --      5.0602                 1.6400                 1.4448
 Frc consts  --      0.5950                 0.2324                 0.2076
 IR Inten    --     10.8052                28.2973                48.2032

                     25                     26                     27
                      A                      A                      A
 Frequencies --    506.9440               530.2171               539.2503
 Red. masses --      2.1259                 3.2875                 2.6691
 Frc consts  --      0.3219                 0.5445                 0.4573
 IR Inten    --     97.3161                19.3214                33.3345

                     28                     29                     30
                      A                      A                      A
 Frequencies --    563.3001               577.7231               583.0062
 Red. masses --      1.2383                 2.9253                 1.2273
 Frc consts  --      0.2315                 0.5753                 0.2458
 IR Inten    --    135.7866               238.3659                41.2826

                     31                     32                     33
                      A                      A                      A
 Frequencies --    613.3580               635.3714               671.7800
 Red. masses --      4.5899                 2.2246                 1.2824
 Frc consts  --      1.0174                 0.5291                 0.3410
 IR Inten    --     22.1253                14.0069               109.3101

                     34                     35                     36
                      A                      A                      A
 Frequencies --    713.6862               822.4586               908.8142
 Red. masses --      4.9593                 1.0766                 1.8233
 Frc consts  --      1.4883                 0.4291                 0.8873
 IR Inten    --     71.1477               178.1351                 0.1423

                     37                     38                     39
                      A                      A                      A
 Frequencies --    996.2141              1019.3837              1041.6511
 Red. masses --      3.6795                 4.0948                 4.0263
 Frc consts  --      2.1515                 2.5071                 2.5740
 IR Inten    --     10.8680                82.4579               253.5455

                     40                     41                     42
                      A                      A                      A
 Frequencies --   1049.4084              1080.3111              1096.5780
 Red. masses --      3.4743                 1.9924                 6.2060
 Frc consts  --      2.2543                 1.3700                 4.3968
 IR Inten    --     55.6127               182.9052               256.4592

                     43                     44                     45
                      A                      A                      A
 Frequencies --   1098.6420              1102.8886              1119.1997
 Red. masses --      2.9100                 3.1476                 3.1237
 Frc consts  --      2.0695                 2.2557                 2.3053
 IR Inten    --    306.3804                67.3138                20.8058

                     46                     47                     48
                      A                      A                      A
 Frequencies --   1141.2419              1154.3359              1211.7731
 Red. masses --      2.5253                 2.1171                 1.1880
 Frc consts  --      1.9379                 1.6621                 1.0278
 IR Inten    --     26.0211                74.0484              1771.8639

                     49                     50                     51
                      A                      A                      A
 Frequencies --   1222.0372              1238.1564              1248.1801
 Red. masses --      1.1808                 1.3013                 1.1850
 Frc consts  --      1.0390                 1.1754                 1.0877
 IR Inten    --    486.6688                65.6959                 6.8951

                     52                     53                     54
                      A                      A                      A
 Frequencies --   1277.7416              1295.5261              1315.3628
 Red. masses --      1.1378                 1.1236                 1.0793
 Frc consts  --      1.0945                 1.1111                 1.1003
 IR Inten    --     95.4732                19.1313                14.3468

                     55                     56                     57
                      A                      A                      A
 Frequencies --   1328.6818              1361.5286              1367.0773
 Red. masses --      1.1693                 1.2186                 1.2042
 Frc consts  --      1.2162                 1.3310                 1.3259
 IR Inten    --     22.6809                 4.1895                30.2917

                     58                     59                     60
                      A                      A                      A
 Frequencies --   1369.9024              1383.6909              1399.6270
 Red. masses --      1.2203                 1.2763                 1.6046
 Frc consts  --      1.3492                 1.4398                 1.8520
 IR Inten    --    158.0603               596.3465               165.0175

                     61                     62                     63
                      A                      A                      A
 Frequencies --   1410.8634              1428.9303              1451.5163
 Red. masses --      1.3409                 1.4124                 1.4282
 Frc consts  --      1.5726                 1.6992                 1.7729
 IR Inten    --    201.0657                35.4244                44.6818

                     64                     65                     66
                      A                      A                      A
 Frequencies --   1466.3340              1474.3016              1522.1029
 Red. masses --      1.2281                 1.3008                 1.0871
 Frc consts  --      1.5558                 1.6659                 1.4839
 IR Inten    --    140.9594               197.1956                 6.9734

                     67                     68                     69
                      A                      A                      A
 Frequencies --   1564.0394              1625.9964              1642.7629
 Red. masses --      2.2041                 1.0751                 1.2774
 Frc consts  --      3.1767                 1.6747                 2.0311
 IR Inten    --     49.8596                86.0438               372.0697

                     70                     71                     72
                      A                      A                      A
 Frequencies --   1890.1845              2985.2811              2994.0128
 Red. masses --      1.0240                 1.0829                 1.0817
 Frc consts  --      2.1557                 5.6860                 5.7128
 IR Inten    --     29.9170                13.8087                16.8595

                     73                     74                     75
                      A                      A                      A
 Frequencies --   3009.1990              3016.3530              3031.2555
 Red. masses --      1.0849                 1.0658                 1.0802
 Frc consts  --      5.7883                 5.7132                 5.8478
 IR Inten    --     45.7636                14.4604                74.2380

                     76                     77                     78
                      A                      A                      A
 Frequencies --   3069.8719              3083.6279              3539.4403
 Red. masses --      1.0896                 1.1046                 1.0682
 Frc consts  --      6.0501                 6.1886                 7.8842
 IR Inten    --     44.5301                32.2615               433.7104

                     79                     80                     81
                      A                      A                      A
 Frequencies --   3633.6000              3688.6790              3736.6737
 Red. masses --      1.0582                 1.0662                 1.0650
 Frc consts  --      8.2317                 8.5471                 8.7614
 IR Inten    --    701.8966               212.7483                79.6217

                     82                     83                     84
                      A                      A                      A
 Frequencies --   3845.1170              3853.3484              3895.3470
 Red. masses --      1.0671                 1.0659                 1.0719
 Frc consts  --      9.2958                 9.3247                 9.5828
 IR Inten    --     55.8837                52.4523               118.0392

 - Thermochemistry -
 -------------------
 Temperature   298.150 Kelvin.  Pressure   1.00000 Atm.
 Atom     1 has atomic number  6 and mass  12.00000

 Molecular mass:   216.08452 amu.
 Principal axes and moments of inertia in atomic units:
                           1         2         3
     Eigenvalues --  2660.409253387.046025556.31020
           X            0.99924   0.03854   0.00617
           Y           -0.03856   0.99925   0.00243
           Z           -0.00607  -0.00266   0.99998
 This molecule is an asymmetric top.
 Rotational symmetry number  1.
 Warning -- assumption of classical behavior for rotation
           may cause significant error
 Rotational temperatures (Kelvin)      0.03256     0.02557     0.01559
 Rotational constants (GHZ):           0.67837     0.53284     0.32481
    1 imaginary frequencies ignored.
 Zero-point vibrational energy     631172.1 (Joules/Mol)
                                  150.85376 (Kcal/Mol)
 Warning -- explicit consideration of  30 degrees of freedom as
           vibrations may cause significant error
 Vibrational temperatures:     52.44    79.78   111.81   125.63   148.82
          (Kelvin)            204.07   227.36   252.67   279.46   369.13
                              387.38   393.64   405.56   432.34   463.72
                              498.57   527.38   553.76   569.55   605.44
                              642.75   705.68   710.60   729.38   762.86
                              775.86   810.46   831.21   838.81   882.48
                              914.16   966.54  1026.83  1183.33  1307.58
                             1433.33  1466.66  1498.70  1509.86  1554.32
                             1577.73  1580.70  1586.81  1610.28  1641.99
                             1660.83  1743.47  1758.24  1781.43  1795.85
                             1838.38  1863.97  1892.51  1911.67  1958.93
                             1966.92  1970.98  1990.82  2013.75  2029.92
                             2055.91  2088.41  2109.72  2121.19  2189.96
                             2250.30  2339.44  2363.57  2719.55  4295.15
                             4307.71  4329.56  4339.85  4361.30  4416.86
                             4436.65  5092.46  5227.93  5307.18  5376.23
                             5532.26  5544.10  5604.53

 Zero-point correction=                           0.240401 (Hartree/Particle)
 Thermal correction to Energy=                    0.256935
 Thermal correction to Enthalpy=                  0.257879
 Thermal correction to Gibbs Free Energy=         0.197055
 Sum of electronic and zero-point Energies=           -839.834600
 Sum of electronic and thermal Energies=              -839.818066
 Sum of electronic and thermal Enthalpies=            -839.817122
 Sum of electronic and thermal Free Energies=         -839.877946

                     E (Thermal)             CV                S
                      KCal/Mol        Cal/Mol-Kelvin    Cal/Mol-Kelvin
 Total                  161.229             62.432            128.015
 Electronic               0.000              0.000              0.000
 Translational            0.889              2.981             42.015
 Rotational               0.889              2.981             32.282
 Vibrational            159.452             56.471             53.718
 Vibration     1          0.594              1.982              5.443
 Vibration     2          0.596              1.975              4.613
 Vibration     3          0.599              1.964              3.948
 Vibration     4          0.601              1.958              3.719
 Vibration     5          0.605              1.946              3.389
 Vibration     6          0.615              1.911              2.779
 Vibration     7          0.621              1.894              2.573
 Vibration     8          0.628              1.872              2.375
 Vibration     9          0.635              1.848              2.187
 Vibration    10          0.666              1.752              1.685
 Vibration    11          0.674              1.730              1.601
 Vibration    12          0.676              1.722              1.573
 Vibration    13          0.681              1.707              1.522
 Vibration    14          0.693              1.673              1.414
 Vibration    15          0.707              1.631              1.298
 Vibration    16          0.725              1.582              1.182
 Vibration    17          0.739              1.541              1.094
 Vibration    18          0.754              1.502              1.020
 Vibration    19          0.763              1.479              0.978
 Vibration    20          0.783              1.425              0.889
 Vibration    21          0.806              1.368              0.806
 Vibration    22          0.846              1.271              0.682
 Vibration    23          0.850              1.264              0.674
 Vibration    24          0.862              1.235              0.641
 Vibration    25          0.885              1.183              0.587
 Vibration    26          0.894              1.163              0.567
 Vibration    27          0.919              1.111              0.517
 Vibration    28          0.934              1.079              0.490
 Vibration    29          0.940              1.068              0.480
 Vibration    30          0.973              1.004              0.427

 Optimization completed.
    -- Stationary point found.
 Normal termination of Gaussian 09 at Sun Jun  5 00:06:51 2016.
