 Gaussian 09, Revision D.01,
 Gaussian 09:  AM64L-G09RevD.01 24-Apr-2013

 --------------------------------------------------------------------
 # opt=(TS, CalcFC, NoEigenTest, MaxCycle=500) Freq B3LYP/6-31+G(d,p)
 --------------------------------------------------------------------

 -----------------------------
 glo_2w_ALPHA_B3LYP_6-31+G_d_p
 -----------------------------
 Symbolic Z-matrix:
 Charge =  0 Multiplicity = 1

 SCF Done:  E(RB3LYP) =  -840.086666515     A.U. after   14 cycles
 SCF Done:  E(RB3LYP) =  -840.088427675     A.U. after   11 cycles
 SCF Done:  E(RB3LYP) =  -840.088617340     A.U. after   11 cycles
 SCF Done:  E(RB3LYP) =  -840.088630901     A.U. after   10 cycles
 SCF Done:  E(RB3LYP) =  -840.088631562     A.U. after    9 cycles
 SCF Done:  E(RB3LYP) =  -840.088632224     A.U. after    9 cycles
 SCF Done:  E(RB3LYP) =  -840.088632299     A.U. after    7 cycles
 SCF Done:  E(RB3LYP) =  -840.088632304     A.U. after    7 cycles
 Optimization completed.
    -- Stationary point found.
 Normal termination of Gaussian 09 at Sat Jun  4 23:45:37 2016.

 ----------------------------------------------------------------------
 #N Geom=AllCheck Guess=TCheck SCRF=Check GenChk RB3LYP/6-31+G(d,p) Fre
 q
 ----------------------------------------------------------------------

 Structure from the checkpoint file:  "/home/iawad/scratch/MAIN/PRO_Halides/direct/TsF/glo_2w_ALPHA/glo_2w_ALPHA_B3LYP_6-31+G_d_p.chk"
 -----------------------------
 glo_2w_ALPHA_B3LYP_6-31+G_d_p
 -----------------------------
 Charge =  0 Multiplicity = 1

                         Standard orientation:
 ---------------------------------------------------------------------
 Center     Atomic      Atomic             Coordinates (Angstroms)
 Number     Number       Type             X           Y           Z
 ---------------------------------------------------------------------
      1          6           0        0.086894   -1.464029   -0.320261
      2          8           0       -0.632093   -0.020340   -0.865489
      3          1           0       -3.389688    0.278940   -0.492674
      4          1           0       -2.907886   -3.061205    0.989771
      5          8           0       -2.643108   -2.134700    1.032139
      6          1           0       -2.993762   -1.300246    0.011643
      7          8           0       -3.001795   -0.562728   -0.796202
      8          1           0       -1.901434   -0.295662   -0.895579
      9          6           0        1.550266   -1.115039   -0.619155
     10          6           0        1.993725    0.075232    0.231293
     11          6           0        1.169111    1.339627   -0.041251
     12          6           0       -0.341688    1.057549    0.030883
     13          1           0        1.630829   -0.844378   -1.681822
     14          1           0        1.423305    1.717942   -1.037657
     15          1           0       -0.593709    0.748172    1.059320
     16          1           0        1.875826   -0.207792    1.288743
     17          8           0        2.337550   -2.264132   -0.346233
     18          8           0        3.374138    0.296770   -0.066153
     19          8           0        1.559311    2.385044    0.861369
     20          1           0        3.667963    1.082649    0.415426
     21          1           0        3.265505   -1.991741   -0.395108
     22          1           0        1.398170    2.085148    1.768582
     23          6           0       -1.184922    2.275875   -0.346559
     24          8           0       -2.576070    2.114037   -0.003485
     25          1           0       -1.157840    2.420305   -1.430267
     26          1           0       -0.775510    3.169624    0.134897
     27          1           0       -2.700150    2.351533    0.924464
     28          1           0       -0.353288   -2.107613   -1.099940
     29          8           0       -0.240428   -1.691430    0.907585
     30          1           0       -1.548670   -2.041131    1.042260
 ---------------------------------------------------------------------

 SCF Done:  E(RB3LYP) =  -840.088632304     A.U. after    1 cycles

 The electronic state is 1-A.
 Alpha  occ. eigenvalues --  -19.19773 -19.19771 -19.18906 -19.17781 -19.17304
 Alpha  occ. eigenvalues --  -19.15731 -19.15407 -19.11484 -10.28684 -10.26281
 Alpha  occ. eigenvalues --  -10.26204 -10.26176 -10.25106 -10.24337  -1.07683
 Alpha  occ. eigenvalues --   -1.06306  -1.05690  -1.04371  -1.03676  -1.01848
 Alpha  occ. eigenvalues --   -1.00978  -0.98095  -0.79576  -0.77103  -0.70536
 Alpha  occ. eigenvalues --   -0.65334  -0.63476  -0.58370  -0.57855  -0.56039
 Alpha  occ. eigenvalues --   -0.55186  -0.54216  -0.53345  -0.52349  -0.51007
 Alpha  occ. eigenvalues --   -0.48876  -0.48290  -0.46479  -0.45268  -0.44778
 Alpha  occ. eigenvalues --   -0.43269  -0.42787  -0.41156  -0.40429  -0.38513
 Alpha  occ. eigenvalues --   -0.37790  -0.37287  -0.36496  -0.36043  -0.34964
 Alpha  occ. eigenvalues --   -0.33169  -0.32609  -0.31963  -0.30418  -0.28404
 Alpha  occ. eigenvalues --   -0.27557  -0.27136  -0.25309
 Alpha virt. eigenvalues --   -0.02192  -0.01187   0.00908   0.01317   0.01871
 Alpha virt. eigenvalues --    0.03287   0.04191   0.04590   0.04784   0.05298
 Alpha virt. eigenvalues --    0.06861   0.07758   0.07900   0.08043   0.09032

 Mulliken charges:
               1
     1  C    0.201499
     2  O   -0.621334
     3  H    0.434535
     4  H    0.389346
     5  O   -0.921797
     6  H    0.538619
     7  O   -0.811719
     8  H    0.565797
     9  C    0.124837
    10  C    0.085052
    11  C   -0.113538
    12  C    0.105161
    13  H    0.130496
    14  H    0.156524
    15  H    0.147372
    16  H    0.151993
    17  O   -0.511890
    18  O   -0.558540
    19  O   -0.525829
    20  H    0.369430
    21  H    0.365364
    22  H    0.346937
    23  C   -0.177881
    24  O   -0.595619
    25  H    0.164754
    26  H    0.163975
    27  H    0.365939
    28  H    0.109600
    29  O   -0.592577
    30  H    0.513495
 Sum of Mulliken charges =   0.00000

 Dipole moment (field-independent basis, Debye):
    X=             -1.7187    Y=              3.1454    Z=              1.1286  Tot=              3.7578
 Quadrupole moment (field-independent basis, Debye-Ang):
   XX=            -83.5544   YY=            -86.5085   ZZ=            -85.4639
   XY=              3.8321   XZ=             -1.3217   YZ=              6.7093

  Exact polarizability: 129.352   0.363 121.933  -1.072  -0.830  99.150
 Approx polarizability: 157.914   1.218 158.453  -1.205  -4.189 156.640

 ******    1 imaginary frequencies (negative Signs) ******

                      1                      2                      3
                      A                      A                      A
 Frequencies --   -756.9294                54.2097                71.3117
 Red. masses --      1.5132                 5.8583                 4.6491
 Frc consts  --      0.5108                 0.0101                 0.0139
 IR Inten    --    115.1420                 1.7532                 1.7335

                      4                      5                      6
                      A                      A                      A
 Frequencies --     87.7534               109.4573               136.6437
 Red. masses --      5.7634                 5.4148                 6.2343
 Frc consts  --      0.0261                 0.0382                 0.0686
 IR Inten    --      1.5504                 4.0599                10.5482

                      7                      8                      9
                      A                      A                      A
 Frequencies --    144.1000               178.3082               196.7164
 Red. masses --      5.3123                 4.7926                 4.2710
 Frc consts  --      0.0650                 0.0898                 0.0974
 IR Inten    --      1.1031                23.2118                 2.0983

                     10                     11                     12
                      A                      A                      A
 Frequencies --    231.7559               244.9623               256.4618
 Red. masses --      3.7188                 2.9361                 4.1685
 Frc consts  --      0.1177                 0.1038                 0.1615
 IR Inten    --      3.2670                29.3534                24.6147

                     13                     14                     15
                      A                      A                      A
 Frequencies --    272.5525               294.9899               321.2751
 Red. masses --      5.5794                 1.2260                 2.7459
 Frc consts  --      0.2442                 0.0629                 0.1670
 IR Inten    --     17.0591               123.4868                17.1019

                     16                     17                     18
                      A                      A                      A
 Frequencies --    330.0152               336.1870               358.1500
 Red. masses --      3.0664                 1.6031                 3.7782
 Frc consts  --      0.1968                 0.1067                 0.2855
 IR Inten    --     34.5185                52.6066                23.6706

                     19                     20                     21
                      A                      A                      A
 Frequencies --    379.6213               398.5200               409.7851
 Red. masses --      1.2632                 1.4148                 2.0387
 Frc consts  --      0.1073                 0.1324                 0.2017
 IR Inten    --     50.9941               109.4483                36.1662

                     22                     23                     24
                      A                      A                      A
 Frequencies --    428.1587               463.4693               497.9600
 Red. masses --      1.5547                 5.0613                 4.7988
 Frc consts  --      0.1679                 0.6406                 0.7011
 IR Inten    --    142.1375                70.5309               162.7347

                     25                     26                     27
                      A                      A                      A
 Frequencies --    511.1246               552.8569               582.6083
 Red. masses --      5.1175                 3.5659                 3.7926
 Frc consts  --      0.7877                 0.6422                 0.7585
 IR Inten    --     89.7302               102.1114                59.3222

                     28                     29                     30
                      A                      A                      A
 Frequencies --    605.2523               647.2374               682.5694
 Red. masses --      2.7663                 1.1353                 2.3327
 Frc consts  --      0.5971                 0.2802                 0.6403
 IR Inten    --     26.0540               155.0076               115.8820

                     31                     32                     33
                      A                      A                      A
 Frequencies --    685.1295               772.6020               785.6667
 Red. masses --      2.0151                 1.9880                 1.5680
 Frc consts  --      0.5573                 0.6992                 0.5703
 IR Inten    --      4.3638                75.2393                97.9280

                     34                     35                     36
                      A                      A                      A
 Frequencies --    864.1397               886.8956               932.2825
 Red. masses --      2.6049                 2.0812                 2.6278
 Frc consts  --      1.1461                 0.9645                 1.3457
 IR Inten    --    243.2819                77.8448                76.4431

                     37                     38                     39
                      A                      A                      A
 Frequencies --    983.3387              1012.6458              1046.8533
 Red. masses --      5.2325                 3.4893                 2.5054
 Frc consts  --      2.9810                 2.1082                 1.6177
 IR Inten    --     85.9753                84.0547                73.7039

                     40                     41                     42
                      A                      A                      A
 Frequencies --   1054.6871              1064.9812              1099.4730
 Red. masses --      4.3785                 2.1268                 2.7340
 Frc consts  --      2.8696                 1.4212                 1.9472
 IR Inten    --     56.0103                23.3767                 7.5461

                     43                     44                     45
                      A                      A                      A
 Frequencies --   1102.4633              1119.8139              1129.5126
 Red. masses --      4.4534                 3.0744                 2.7361
 Frc consts  --      3.1891                 2.2715                 2.0566
 IR Inten    --    332.8640                 3.8488                10.8284

                     46                     47                     48
                      A                      A                      A
 Frequencies --   1185.9328              1198.7184              1205.4629
 Red. masses --      1.1871                 1.3021                 1.2300
 Frc consts  --      0.9837                 1.1024                 1.0531
 IR Inten    --    101.4249               102.7734                78.2119

                     49                     50                     51
                      A                      A                      A
 Frequencies --   1230.8226              1235.3390              1264.0217
 Red. masses --      1.2369                 1.2974                 1.2139
 Frc consts  --      1.1040                 1.1665                 1.1428
 IR Inten    --     26.5072                45.2976                41.7939

                     52                     53                     54
                      A                      A                      A
 Frequencies --   1271.4277              1328.7379              1338.9479
 Red. masses --      1.2558                 1.3575                 1.2192
 Frc consts  --      1.1960                 1.4121                 1.2878
 IR Inten    --     11.6656                98.1422               119.6668

                     55                     56                     57
                      A                      A                      A
 Frequencies --   1351.6294              1367.8692              1384.3362
 Red. masses --      1.2411                 1.2516                 1.2307
 Frc consts  --      1.3359                 1.3798                 1.3896
 IR Inten    --    119.6255                14.7550                55.2681

                     58                     59                     60
                      A                      A                      A
 Frequencies --   1394.1238              1395.1011              1408.4898
 Red. masses --      1.2733                 1.1790                 1.2908
 Frc consts  --      1.4581                 1.3519                 1.5088
 IR Inten    --    101.0470                70.7233                13.2956

                     61                     62                     63
                      A                      A                      A
 Frequencies --   1417.2807              1420.3240              1430.2356
 Red. masses --      1.4374                 1.4363                 1.7537
 Frc consts  --      1.7011                 1.7072                 2.1136
 IR Inten    --    176.0552                67.1787                23.2100

                     64                     65                     66
                      A                      A                      A
 Frequencies --   1482.5416              1500.5636              1559.2013
 Red. masses --      1.5813                 1.0864                 1.3213
 Frc consts  --      2.0478                 1.4412                 1.8926
 IR Inten    --   1715.0907                21.5353               421.7621

                     67                     68                     69
                      A                      A                      A
 Frequencies --   1582.0405              1644.0491              1812.3720
 Red. masses --      1.1941                 1.0817                 1.0959
 Frc consts  --      1.7609                 1.7225                 2.1210
 IR Inten    --    592.7909              1292.6717              1214.4227

                     70                     71                     72
                      A                      A                      A
 Frequencies --   1842.5735              2036.5649              2986.6168
 Red. masses --      1.0459                 1.0784                 1.0844
 Frc consts  --      2.0921                 2.6353                 5.6992
 IR Inten    --    467.9958              2120.8542                64.5151

                     73                     74                     75
                      A                      A                      A
 Frequencies --   2987.5041              3008.1606              3024.1153
 Red. masses --      1.0847                 1.0825                 1.0855
 Frc consts  --      5.7042                 5.7714                 5.8491
 IR Inten    --     36.4178                 6.5974                56.0433

                     76                     77                     78
                      A                      A                      A
 Frequencies --   3068.3739              3081.9999              3126.8669
 Red. masses --      1.0590                 1.0858                 1.1086
 Frc consts  --      5.8746                 6.0769                 6.3863
 IR Inten    --     16.3025                22.3835                12.3110

                     79                     80                     81
                      A                      A                      A
 Frequencies --   3711.7090              3782.6128              3799.6554
 Red. masses --      1.0637                 1.0661                 1.0660
 Frc consts  --      8.6338                 8.9874                 9.0674
 IR Inten    --    190.9569                20.3620                52.6883

                     82                     83                     84
                      A                      A                      A
 Frequencies --   3812.6877              3834.9297              3878.7007
 Red. masses --      1.0663                 1.0669                 1.0658
 Frc consts  --      9.1326                 9.2449                 9.4474
 IR Inten    --     45.7007                45.4951                63.0140

 - Thermochemistry -
 -------------------
 Temperature   298.150 Kelvin.  Pressure   1.00000 Atm.
 Atom     1 has atomic number  6 and mass  12.00000

 Molecular mass:   216.08452 amu.
 Principal axes and moments of inertia in atomic units:
                           1         2         3
     Eigenvalues --  2336.945393428.746105111.12793
           X            0.99985   0.01717  -0.00183
           Y           -0.01716   0.99985   0.00314
           Z            0.00188  -0.00311   0.99999
 This molecule is an asymmetric top.
 Rotational symmetry number  1.
 Warning -- assumption of classical behavior for rotation
           may cause significant error
 Rotational temperatures (Kelvin)      0.03706     0.02526     0.01695
 Rotational constants (GHZ):           0.77227     0.52636     0.35310
    1 imaginary frequencies ignored.
 Zero-point vibrational energy     632328.9 (Joules/Mol)
                                  151.13024 (Kcal/Mol)
 Warning -- explicit consideration of  27 degrees of freedom as
           vibrations may cause significant error
 Vibrational temperatures:     78.00   102.60   126.26   157.48   196.60
          (Kelvin)            207.33   256.55   283.03   333.44   352.45
                              368.99   392.14   424.42   462.24   474.82
                              483.70   515.30   546.19   573.38   589.59
                              616.02   666.83   716.45   735.39   795.44
                              838.24   870.82   931.23   982.06   985.75
                             1111.60  1130.40  1243.30  1276.04  1341.34
                             1414.80  1456.97  1506.19  1517.46  1532.27
                             1581.89  1586.20  1611.16  1625.11  1706.29
                             1724.69  1734.39  1770.88  1777.38  1818.64
                             1829.30  1911.76  1926.44  1944.69  1968.06
                             1991.75  2005.83  2007.24  2026.50  2039.15
                             2043.53  2057.79  2133.04  2158.97  2243.34
                             2276.20  2365.42  2607.60  2651.05  2930.16
                             4297.07  4298.35  4328.07  4351.02  4414.70
                             4434.30  4498.86  5340.31  5442.33  5466.85
                             5485.60  5517.60  5580.58

 Zero-point correction=                           0.240841 (Hartree/Particle)
 Thermal correction to Energy=                    0.256739
 Thermal correction to Enthalpy=                  0.257683
 Thermal correction to Gibbs Free Energy=         0.198941
 Sum of electronic and zero-point Energies=           -839.847791
 Sum of electronic and thermal Energies=              -839.831894
 Sum of electronic and thermal Enthalpies=            -839.830950
 Sum of electronic and thermal Free Energies=         -839.889691

                     E (Thermal)             CV                S
                      KCal/Mol        Cal/Mol-Kelvin    Cal/Mol-Kelvin
 Total                  161.106             60.629            123.631
 Electronic               0.000              0.000              0.000
 Translational            0.889              2.981             42.015
 Rotational               0.889              2.981             32.082
 Vibrational            159.328             54.668             49.534
 Vibration     1          0.596              1.976              4.658
 Vibration     2          0.598              1.968              4.117
 Vibration     3          0.601              1.958              3.710
 Vibration     4          0.606              1.942              3.279
 Vibration     5          0.614              1.917              2.850
 Vibration     6          0.616              1.909              2.749
 Vibration     7          0.629              1.869              2.346
 Vibration     8          0.636              1.844              2.164
 Vibration     9          0.653              1.792              1.865
 Vibration    10          0.660              1.771              1.767
 Vibration    11          0.666              1.752              1.686
 Vibration    12          0.676              1.724              1.580
 Vibration    13          0.689              1.683              1.445
 Vibration    14          0.707              1.633              1.304
 Vibration    15          0.713              1.616              1.260
 Vibration    16          0.717              1.603              1.230
 Vibration    17          0.733              1.559              1.130
 Vibration    18          0.750              1.514              1.041
 Vibration    19          0.765              1.473              0.968
 Vibration    20          0.774              1.449              0.927
 Vibration    21          0.790              1.409              0.865
 Vibration    22          0.821              1.331              0.756
 Vibration    23          0.853              1.255              0.663
 Vibration    24          0.866              1.225              0.631
 Vibration    25          0.908              1.133              0.538
 Vibration    26          0.939              1.069              0.481
 Vibration    27          0.964              1.021              0.441

 Optimization completed.
    -- Stationary point found.
 Normal termination of Gaussian 09 at Sun Jun  5 00:43:11 2016.
