 Gaussian 09, Revision E.01,
 Gaussian 09:  ES64L-G09RevE.01 30-Nov-2015

 -----------------------------------------
 # opt=(MaxCycle=1000) freq B3LYP/6-31G(d)
 -----------------------------------------

 ---------------------------------------------------
 ./chairs/2/glo_2w_alpha_ircr_chair2_B3LYP_631Gd.out
 ---------------------------------------------------
 Symbolic Z-matrix:
 Charge =  0 Multiplicity = 1

 SCF Done:  E(RB3LYP) =  -839.975618172     A.U. after   14 cycles
 SCF Done:  E(RB3LYP) =  -839.975002586     A.U. after   14 cycles
 SCF Done:  E(RB3LYP) =  -839.977990048     A.U. after   11 cycles
 SCF Done:  E(RB3LYP) =  -839.979080333     A.U. after   12 cycles
 SCF Done:  E(RB3LYP) =  -839.982394741     A.U. after   12 cycles
 SCF Done:  E(RB3LYP) =  -839.986609559     A.U. after   13 cycles
 SCF Done:  E(RB3LYP) =  -839.988680575     A.U. after   13 cycles
 SCF Done:  E(RB3LYP) =  -839.989250073     A.U. after   12 cycles
 SCF Done:  E(RB3LYP) =  -839.989556988     A.U. after   12 cycles
 SCF Done:  E(RB3LYP) =  -839.990198773     A.U. after   13 cycles
 SCF Done:  E(RB3LYP) =  -839.990909352     A.U. after   10 cycles
 SCF Done:  E(RB3LYP) =  -839.990914478     A.U. after    9 cycles
 SCF Done:  E(RB3LYP) =  -839.990919735     A.U. after    9 cycles
 SCF Done:  E(RB3LYP) =  -839.990923295     A.U. after    9 cycles
 SCF Done:  E(RB3LYP) =  -839.990927325     A.U. after    9 cycles
 SCF Done:  E(RB3LYP) =  -839.990929469     A.U. after    9 cycles
 SCF Done:  E(RB3LYP) =  -839.990931588     A.U. after    9 cycles
 SCF Done:  E(RB3LYP) =  -839.990932633     A.U. after    8 cycles
 SCF Done:  E(RB3LYP) =  -839.990933016     A.U. after    7 cycles
 Optimization completed.
    -- Stationary point found.
 Normal termination of Gaussian 09 at Sun Jan 15 13:29:46 2017.

 --------------------------------------------------------------------
 #N Geom=AllCheck Guess=TCheck SCRF=Check GenChk RB3LYP/6-31G(d) Freq
 --------------------------------------------------------------------

 Structure from the checkpoint file:  "/scratch/10462975.yak.local/Gau-28125.chk"
 ---------------------------------------------------
 ./chairs/2/glo_2w_alpha_ircr_chair2_B3LYP_631Gd.out
 ---------------------------------------------------
 Charge =  0 Multiplicity = 1

                         Standard orientation:
 ---------------------------------------------------------------------
 Center     Atomic      Atomic             Coordinates (Angstroms)
 Number     Number       Type             X           Y           Z
 ---------------------------------------------------------------------
      1          6           0       -0.814130   -1.160033   -0.811458
      2          8           0       -0.509157    0.441726    0.904300
      3          6           0        0.522696   -1.813576   -0.503761
      4          6           0        1.765659   -0.892923   -0.442998
      5          6           0        1.838296    0.121305    0.717565
      6          6           0        0.713962    1.165330    0.783500
      7          1           0        0.686967   -2.479546   -1.378383
      8          1           0        2.777297    0.669906    0.594359
      9          1           0        0.903853    1.729048    1.709119
     10          1           0        2.629979   -1.554024   -0.300824
     11          8           0        0.413248   -2.586612    0.674039
     12          8           0        1.880246   -0.184712   -1.689050
     13          8           0        1.951062   -0.584605    1.941990
     14          1           0        2.295692   -0.767277   -2.342576
     15          1           0       -0.548120   -2.725335    0.793154
     16          1           0        1.206902   -1.213324    1.964849
     17          6           0        0.657725    2.154593   -0.405459
     18          8           0        1.935999    2.589018   -0.840317
     19          1           0        0.103009    3.047855   -0.100080
     20          1           0        0.094657    1.693041   -1.227777
     21          1           0        2.296084    1.842085   -1.349388
     22          1           0       -0.829123   -0.350750   -1.553611
     23          8           0       -1.843518   -1.694008   -0.406245
     24          1           0       -3.366455   -0.722760   -0.578093
     25          1           0       -1.284057    1.063763    0.866049
     26          8           0       -4.097973   -0.063601   -0.544034
     27          1           0       -4.770063   -0.476655    0.018288
     28          8           0       -2.711018    1.990313    0.613523
     29          1           0       -3.143966    2.203961    1.453323
     30          1           0       -3.309016    1.331670    0.173618
 ---------------------------------------------------------------------

 SCF Done:  E(RB3LYP) =  -839.990933016     A.U. after    1 cycles

 The electronic state is 1-A.
 Alpha  occ. eigenvalues --  -19.18431 -19.17409 -19.16751 -19.15773 -19.14972
 Alpha  occ. eigenvalues --  -19.13945 -19.12759 -19.12711 -10.30272 -10.26380
 Alpha  occ. eigenvalues --  -10.25888 -10.23169 -10.22358 -10.21636  -1.07838
 Alpha  occ. eigenvalues --   -1.05425  -1.03500  -1.02181  -1.01623  -1.00322
 Alpha  occ. eigenvalues --   -1.00095  -0.99235  -0.78206  -0.74060  -0.69357
 Alpha  occ. eigenvalues --   -0.64610  -0.60799  -0.57594  -0.55047  -0.54123
 Alpha  occ. eigenvalues --   -0.53043  -0.52809  -0.51943  -0.49782  -0.49481
 Alpha  occ. eigenvalues --   -0.48293  -0.46562  -0.44825  -0.43710  -0.41670
 Alpha  occ. eigenvalues --   -0.41043  -0.40566  -0.39937  -0.39254  -0.37876
 Alpha  occ. eigenvalues --   -0.37332  -0.36107  -0.34715  -0.33141  -0.33068
 Alpha  occ. eigenvalues --   -0.31627  -0.30915  -0.30343  -0.28678  -0.28142
 Alpha  occ. eigenvalues --   -0.27665  -0.25382  -0.24144
 Alpha virt. eigenvalues --   -0.03444   0.03221   0.04879   0.08001   0.08876
 Alpha virt. eigenvalues --    0.10246   0.11988   0.12462   0.12881   0.14148
 Alpha virt. eigenvalues --    0.15519   0.15825   0.17291   0.19287   0.19835

 Mulliken charges:
               1
     1  C    0.290346
     2  O   -0.697930
     3  C    0.084774
     4  C    0.066543
     5  C    0.110110
     6  C    0.116999
     7  H    0.134857
     8  H    0.149941
     9  H    0.135075
    10  H    0.157309
    11  O   -0.639989
    12  O   -0.642708
    13  O   -0.645575
    14  H    0.409065
    15  H    0.417238
    16  H    0.417603
    17  C   -0.064427
    18  O   -0.635111
    19  H    0.154676
    20  H    0.125334
    21  H    0.409427
    22  H    0.157958
    23  O   -0.484747
    24  H    0.437540
    25  H    0.442643
    26  O   -0.815770
    27  H    0.396739
    28  O   -0.818167
    29  H    0.394077
    30  H    0.436172
 Sum of Mulliken charges =  -0.00000

 Dipole moment (field-independent basis, Debye):
    X=             -2.4304    Y=             -2.8363    Z=             -1.5129  Tot=              4.0299
 Quadrupole moment (field-independent basis, Debye-Ang):
   XX=            -74.0471   YY=            -90.5078   ZZ=            -80.2128
   XY=             -3.9915   XZ=            -18.2313   YZ=              9.6512

  Exact polarizability: 107.092   2.655  99.146  -3.455   3.365  85.461
 Approx polarizability: 142.472   8.085 133.421  -5.482   1.015 126.410

                      1                      2                      3
                      A                      A                      A
 Frequencies --     25.5352                41.5684                71.4644
 Red. masses --      4.7556                 5.5042                 6.2300
 Frc consts  --      0.0018                 0.0056                 0.0187
 IR Inten    --      6.2875                 5.9847                 0.1932

                      4                      5                      6
                      A                      A                      A
 Frequencies --     83.7639               101.2235               121.6415
 Red. masses --      6.6362                 6.2470                 3.8487
 Frc consts  --      0.0274                 0.0377                 0.0336
 IR Inten    --      2.1808                 1.1119                 1.4220

                      7                      8                      9
                      A                      A                      A
 Frequencies --    159.5328               172.4103               184.9439
 Red. masses --      6.2100                 5.5129                 6.2291
 Frc consts  --      0.0931                 0.0966                 0.1255
 IR Inten    --      9.2725                 0.9332                 7.4248

                     10                     11                     12
                      A                      A                      A
 Frequencies --    203.9652               209.9146               225.2932
 Red. masses --      5.5397                 3.7087                 3.0126
 Frc consts  --      0.1358                 0.0963                 0.0901
 IR Inten    --     19.3017                 6.4630                 3.3484

                     13                     14                     15
                      A                      A                      A
 Frequencies --    233.9235               254.9444               271.6434
 Red. masses --      3.4225                 1.8549                 1.2058
 Frc consts  --      0.1103                 0.0710                 0.0524
 IR Inten    --     21.8486                60.3622                82.7520

                     16                     17                     18
                      A                      A                      A
 Frequencies --    274.9579               283.9374               290.4243
 Red. masses --      3.0699                 2.5728                 1.3959
 Frc consts  --      0.1367                 0.1222                 0.0694
 IR Inten    --     29.7798                57.5355                41.4940

                     19                     20                     21
                      A                      A                      A
 Frequencies --    331.3783               350.3051               385.1126
 Red. masses --      4.6860                 4.0172                 3.7023
 Frc consts  --      0.3032                 0.2904                 0.3235
 IR Inten    --      8.3015                62.2449                 6.5773

                     22                     23                     24
                      A                      A                      A
 Frequencies --    392.3000               413.0397               448.3431
 Red. masses --      3.5849                 1.3373                 1.3193
 Frc consts  --      0.3251                 0.1344                 0.1562
 IR Inten    --     19.6425                40.4325                11.4365

                     25                     26                     27
                      A                      A                      A
 Frequencies --    467.0826               504.6517               543.2133
 Red. masses --      3.7554                 4.1707                 1.1174
 Frc consts  --      0.4827                 0.6258                 0.1943
 IR Inten    --      2.4090                 5.7272               104.5731

                     28                     29                     30
                      A                      A                      A
 Frequencies --    560.1566               584.0587               585.3538
 Red. masses --      3.2106                 1.8464                 1.4246
 Frc consts  --      0.5935                 0.3711                 0.2876
 IR Inten    --     24.8629                94.5595               179.9309

                     31                     32                     33
                      A                      A                      A
 Frequencies --    614.5579               666.4936               676.2921
 Red. masses --      1.3923                 1.1294                 3.3537
 Frc consts  --      0.3098                 0.2956                 0.9037
 IR Inten    --     85.4248               128.6813                 3.3937

                     34                     35                     36
                      A                      A                      A
 Frequencies --    761.2240               826.5200               841.6145
 Red. masses --      2.3644                 2.5676                 2.4406
 Frc consts  --      0.8072                 1.0334                 1.0185
 IR Inten    --     16.2722                 6.3096                31.0290

                     37                     38                     39
                      A                      A                      A
 Frequencies --    853.2698               928.9678               958.1474
 Red. masses --      1.3799                 1.9261                 1.0828
 Frc consts  --      0.5919                 0.9793                 0.5857
 IR Inten    --    277.8212                 5.8905                50.5060

                     40                     41                     42
                      A                      A                      A
 Frequencies --   1016.2970              1033.9017              1062.3140
 Red. masses --      1.8722                 1.8423                 4.3734
 Frc consts  --      1.1393                 1.1603                 2.9079
 IR Inten    --     39.2024                39.7765                35.2556

                     43                     44                     45
                      A                      A                      A
 Frequencies --   1074.4198              1094.4968              1102.5523
 Red. masses --      5.1347                 4.3251                 3.4014
 Frc consts  --      3.4923                 3.0527                 2.4362
 IR Inten    --     78.4730                93.5592                96.0132

                     46                     47                     48
                      A                      A                      A
 Frequencies --   1118.2192              1146.5250              1157.1889
 Red. masses --      2.8311                 2.4854                 3.6339
 Frc consts  --      2.0857                 1.9249                 2.8670
 IR Inten    --     20.1741               113.1169                15.5032

                     49                     50                     51
                      A                      A                      A
 Frequencies --   1221.9800              1246.5120              1262.5084
 Red. masses --      1.0997                 1.2085                 1.2162
 Frc consts  --      0.9675                 1.1063                 1.1421
 IR Inten    --     11.8217                11.8419                31.8756

                     52                     53                     54
                      A                      A                      A
 Frequencies --   1316.0090              1326.8226              1334.1762
 Red. masses --      1.2371                 1.1565                 1.2922
 Frc consts  --      1.2623                 1.1996                 1.3552
 IR Inten    --      7.6232                11.7536                16.9818

                     55                     56                     57
                      A                      A                      A
 Frequencies --   1360.1844              1374.6271              1391.2700
 Red. masses --      1.1910                 1.2862                 1.2856
 Frc consts  --      1.2982                 1.4320                 1.4661
 IR Inten    --      7.1429                91.2567                 7.7479

                     58                     59                     60
                      A                      A                      A
 Frequencies --   1415.6509              1417.1902              1429.4413
 Red. masses --      1.3245                 1.3782                 1.4065
 Frc consts  --      1.5639                 1.6309                 1.6932
 IR Inten    --     14.9118                17.8488                 0.6631

                     61                     62                     63
                      A                      A                      A
 Frequencies --   1453.4787              1473.4969              1485.6229
 Red. masses --      1.2444                 1.4866                 1.2505
 Frc consts  --      1.5489                 1.9017                 1.6262
 IR Inten    --     37.7671                44.1747                87.8784

                     64                     65                     66
                      A                      A                      A
 Frequencies --   1496.4471              1531.1439              1739.1138
 Red. masses --      1.3616                 1.0840                 3.0458
 Frc consts  --      1.7965                 1.4973                 5.4275
 IR Inten    --     24.8880                 1.2333               208.2946

                     67                     68                     69
                      A                      A                      A
 Frequencies --   1746.2697              1754.3425              2893.2166
 Red. masses --      1.3801                 1.0804                 1.0794
 Frc consts  --      2.4797                 1.9590                 5.3233
 IR Inten    --     88.2413                48.9911                61.4687

                     70                     71                     72
                      A                      A                      A
 Frequencies --   3017.4115              3040.5087              3051.9222
 Red. masses --      1.0844                 1.0649                 1.0860
 Frc consts  --      5.8172                 5.8002                 5.9600
 IR Inten    --     29.6770                58.8076                34.3378

                     73                     74                     75
                      A                      A                      A
 Frequencies --   3082.8667              3096.3877              3105.8374
 Red. masses --      1.0898                 1.0860                 1.1005
 Frc consts  --      6.1025                 6.1345                 6.2545
 IR Inten    --     35.1367                28.7006                37.3000

                     76                     77                     78
                      A                      A                      A
 Frequencies --   3281.6299              3394.9073              3505.3153
 Red. masses --      1.0692                 1.0625                 1.0588
 Frc consts  --      6.7838                 7.2150                 7.6648
 IR Inten    --    738.8981               748.6696               823.4761

                     79                     80                     81
                      A                      A                      A
 Frequencies --   3612.5102              3682.2352              3701.2690
 Red. masses --      1.0647                 1.0654                 1.0654
 Frc consts  --      8.1868                 8.5108                 8.5993
 IR Inten    --     69.9077                81.3370                70.4381

                     82                     83                     84
                      A                      A                      A
 Frequencies --   3758.3890              3799.5199              3801.7655
 Red. masses --      1.0669                 1.0678                 1.0686
 Frc consts  --      8.8794                 9.0823                 9.1002
 IR Inten    --     30.1502                36.9185                81.6712

 - Thermochemistry -
 -------------------
 Temperature   298.150 Kelvin.  Pressure   1.00000 Atm.
 Atom     1 has atomic number  6 and mass  12.00000

 Molecular mass:   216.08452 amu.
 Principal axes and moments of inertia in atomic units:
                           1         2         3
     Eigenvalues --  2571.053953627.033594740.93113
           X            0.99963  -0.02359  -0.01373
           Y            0.02381   0.99959   0.01589
           Z            0.01335  -0.01621   0.99978
 This molecule is an asymmetric top.
 Rotational symmetry number  1.
 Warning -- assumption of classical behavior for rotation
           may cause significant error
 Rotational temperatures (Kelvin)      0.03369     0.02388     0.01827
 Rotational constants (GHZ):           0.70195     0.49758     0.38067
 Zero-point vibrational energy     647844.0 (Joules/Mol)
                                  154.83844 (Kcal/Mol)
 Warning -- explicit consideration of  31 degrees of freedom as
           vibrations may cause significant error
 Vibrational temperatures:     36.74    59.81   102.82   120.52   145.64
          (Kelvin)            175.01   229.53   248.06   266.09   293.46
                              302.02   324.15   336.56   366.81   390.83
                              395.60   408.52   417.86   476.78   504.01
                              554.09   564.43   594.27   645.06   672.03
                              726.08   781.56   805.94   840.33   842.19
                              884.21   958.93   973.03  1095.23  1189.18
                             1210.89  1227.66  1336.58  1378.56  1462.22
                             1487.55  1528.43  1545.85  1574.73  1586.32
                             1608.87  1649.59  1664.93  1758.15  1793.45
                             1816.47  1893.44  1909.00  1919.58  1957.00
                             1977.78  2001.72  2036.80  2039.02  2056.64
                             2091.23  2120.03  2137.48  2153.05  2202.97
                             2502.19  2512.49  2524.10  4162.69  4341.38
                             4374.61  4391.03  4435.55  4455.01  4468.60
                             4721.53  4884.51  5043.36  5197.59  5297.91
                             5325.29  5407.48  5466.65  5469.89

 Zero-point correction=                           0.246751 (Hartree/Particle)
 Thermal correction to Energy=                    0.264820
 Thermal correction to Enthalpy=                  0.265764
 Thermal correction to Gibbs Free Energy=         0.201362
 Sum of electronic and zero-point Energies=           -839.744182
 Sum of electronic and thermal Energies=              -839.726113
 Sum of electronic and thermal Enthalpies=            -839.725169
 Sum of electronic and thermal Free Energies=         -839.789571

                     E (Thermal)             CV                S
                      KCal/Mol        Cal/Mol-Kelvin    Cal/Mol-Kelvin
 Total                  166.177             65.982            135.546
 Electronic               0.000              0.000              0.000
 Translational            0.889              2.981             42.015
 Rotational               0.889              2.981             32.158
 Vibrational            164.400             60.020             61.373
 Vibration     1          0.593              1.985              6.149
 Vibration     2          0.594              1.981              5.183
 Vibration     3          0.598              1.968              4.113
 Vibration     4          0.601              1.960              3.801
 Vibration     5          0.604              1.948              3.431
 Vibration     6          0.609              1.931              3.074
 Vibration     7          0.621              1.892              2.555
 Vibration     8          0.626              1.876              2.409
 Vibration     9          0.631              1.860              2.278
 Vibration    10          0.640              1.834              2.097
 Vibration    11          0.642              1.826              2.044
 Vibration    12          0.650              1.803              1.916
 Vibration    13          0.654              1.789              1.849
 Vibration    14          0.665              1.754              1.696
 Vibration    15          0.675              1.726              1.586
 Vibration    16          0.677              1.720              1.565
 Vibration    17          0.682              1.703              1.510
 Vibration    18          0.686              1.692              1.471
 Vibration    19          0.714              1.613              1.253
 Vibration    20          0.727              1.575              1.165
 Vibration    21          0.754              1.502              1.019
 Vibration    22          0.760              1.487              0.991
 Vibration    23          0.777              1.442              0.916
 Vibration    24          0.807              1.365              0.801
 Vibration    25          0.824              1.323              0.746
 Vibration    26          0.860              1.240              0.647
 Vibration    27          0.898              1.155              0.558
 Vibration    28          0.916              1.118              0.524
 Vibration    29          0.941              1.066              0.478
 Vibration    30          0.942              1.063              0.476
 Vibration    31          0.974              1.001              0.425

 Normal termination of Gaussian 09 at Sun Jan 15 13:46:54 2017.
