 Gaussian 09, Revision E.01,
 Gaussian 09:  ES64L-G09RevE.01 30-Nov-2015

 -----------------------------------------
 # opt=(MaxCycle=1000) freq B3LYP/6-31G(d)
 -----------------------------------------

 --------------------------------------------------
 ./chairs/2/glo_2w_beta_ircf_chair2_B3LYP_631Gd.out
 --------------------------------------------------
 Symbolic Z-matrix:
 Charge =  0 Multiplicity = 1

 SCF Done:  E(RB3LYP) =  -839.976019810     A.U. after   14 cycles
 SCF Done:  E(RB3LYP) =  -839.977220818     A.U. after   12 cycles
 SCF Done:  E(RB3LYP) =  -839.977813723     A.U. after   12 cycles
 SCF Done:  E(RB3LYP) =  -839.979160998     A.U. after   12 cycles
 SCF Done:  E(RB3LYP) =  -839.980807862     A.U. after   12 cycles
 SCF Done:  E(RB3LYP) =  -839.983957206     A.U. after   12 cycles
 SCF Done:  E(RB3LYP) =  -839.985337662     A.U. after   12 cycles
 SCF Done:  E(RB3LYP) =  -839.986756253     A.U. after   11 cycles
 SCF Done:  E(RB3LYP) =  -839.987500264     A.U. after   11 cycles
 SCF Done:  E(RB3LYP) =  -839.988036208     A.U. after   12 cycles
 SCF Done:  E(RB3LYP) =  -839.988992506     A.U. after   10 cycles
 SCF Done:  E(RB3LYP) =  -839.989008108     A.U. after   10 cycles
 SCF Done:  E(RB3LYP) =  -839.989015775     A.U. after   10 cycles
 SCF Done:  E(RB3LYP) =  -839.989020933     A.U. after    9 cycles
 SCF Done:  E(RB3LYP) =  -839.989023445     A.U. after    8 cycles
 SCF Done:  E(RB3LYP) =  -839.989024125     A.U. after    8 cycles
 SCF Done:  E(RB3LYP) =  -839.989024359     A.U. after    7 cycles
 SCF Done:  E(RB3LYP) =  -839.989024518     A.U. after    7 cycles
 SCF Done:  E(RB3LYP) =  -839.989024587     A.U. after    6 cycles
 Optimization completed.
    -- Stationary point found.
 Normal termination of Gaussian 09 at Sun Jan 15 13:28:14 2017.

 --------------------------------------------------------------------
 #N Geom=AllCheck Guess=TCheck SCRF=Check GenChk RB3LYP/6-31G(d) Freq
 --------------------------------------------------------------------

 Structure from the checkpoint file:  "/scratch/10462977.yak.local/Gau-6238.chk"
 --------------------------------------------------
 ./chairs/2/glo_2w_beta_ircf_chair2_B3LYP_631Gd.out
 --------------------------------------------------
 Charge =  0 Multiplicity = 1

                         Standard orientation:
 ---------------------------------------------------------------------
 Center     Atomic      Atomic             Coordinates (Angstroms)
 Number     Number       Type             X           Y           Z
 ---------------------------------------------------------------------
      1          6           0        0.317616   -1.685981    0.250957
      2          8           0        0.362503    0.103678   -1.297545
      3          6           0       -1.204121   -1.664228    0.311266
      4          6           0       -1.800081   -0.282091    0.700638
      5          6           0       -1.705367    0.839446   -0.363118
      6          6           0       -0.291438    1.266221   -0.780668
      7          1           0       -1.467956   -2.347071    1.137488
      8          1           0       -2.182395    1.717438    0.082624
      9          1           0       -0.444195    1.988033   -1.596258
     10          1           0       -2.871208   -0.455381    0.847859
     11          8           0       -1.796444   -2.092925   -0.903557
     12          8           0       -1.263743    0.139059    1.959064
     13          8           0       -2.490492    0.511582   -1.498092
     14          1           0       -0.365100   -0.234835    2.045744
     15          1           0       -1.568740   -3.022178   -1.059641
     16          1           0       -2.116081   -0.306062   -1.868000
     17          6           0        0.547818    1.938449    0.338211
     18          8           0       -0.214785    2.749173    1.212651
     19          1           0        1.293353    2.596890   -0.122553
     20          1           0        1.103274    1.164742    0.885545
     21          1           0       -0.728574    2.124555    1.759177
     22          8           0        0.993259   -1.381592    1.234389
     23          1           0        2.792073   -1.094135    0.993674
     24          1           0        0.769116   -2.155835   -0.637955
     25          1           0        1.313673    0.312988   -1.498378
     26          8           0        3.683620   -0.837359    0.669143
     27          1           0        4.162420   -1.670535    0.547908
     28          8           0        3.027102    0.493891   -1.616159
     29          1           0        3.347274    1.403621   -1.526613
     30          1           0        3.368350    0.022810   -0.813500
 ---------------------------------------------------------------------

 SCF Done:  E(RB3LYP) =  -839.989024587     A.U. after    1 cycles

 The electronic state is 1-A.
 Alpha  occ. eigenvalues --  -19.18688 -19.18636 -19.16517 -19.16183 -19.15111
 Alpha  occ. eigenvalues --  -19.14517 -19.12808 -19.12783 -10.31474 -10.27447
 Alpha  occ. eigenvalues --  -10.25346 -10.22841 -10.22722 -10.22276  -1.08456
 Alpha  occ. eigenvalues --   -1.06008  -1.03451  -1.02571  -1.02013  -1.00482
 Alpha  occ. eigenvalues --   -1.00210  -0.99446  -0.78071  -0.74489  -0.69500
 Alpha  occ. eigenvalues --   -0.65340  -0.61826  -0.57456  -0.56606  -0.54940
 Alpha  occ. eigenvalues --   -0.53915  -0.53162  -0.50675  -0.49764  -0.49256
 Alpha  occ. eigenvalues --   -0.48130  -0.47025  -0.45624  -0.43088  -0.42149
 Alpha  occ. eigenvalues --   -0.41728  -0.41313  -0.40700  -0.39416  -0.38266
 Alpha  occ. eigenvalues --   -0.37707  -0.36479  -0.35642  -0.33950  -0.32197
 Alpha  occ. eigenvalues --   -0.31874  -0.31388  -0.30292  -0.29200  -0.28326
 Alpha  occ. eigenvalues --   -0.28089  -0.25085  -0.24364
 Alpha virt. eigenvalues --   -0.05078   0.03462   0.04381   0.07537   0.08231
 Alpha virt. eigenvalues --    0.10073   0.11175   0.12650   0.13761   0.14549
 Alpha virt. eigenvalues --    0.15374   0.16949   0.17113   0.18595   0.19599

 Mulliken charges:
               1
     1  C    0.268403
     2  O   -0.698392
     3  C    0.037073
     4  C    0.115007
     5  C    0.098380
     6  C    0.109139
     7  H    0.165694
     8  H    0.156420
     9  H    0.140393
    10  H    0.166124
    11  O   -0.622618
    12  O   -0.668042
    13  O   -0.643703
    14  H    0.429150
    15  H    0.406187
    16  H    0.420251
    17  C   -0.076174
    18  O   -0.632834
    19  H    0.129307
    20  H    0.123668
    21  H    0.414077
    22  O   -0.470303
    23  H    0.439974
    24  H    0.147103
    25  H    0.451359
    26  O   -0.814540
    27  H    0.400334
    28  O   -0.827504
    29  H    0.399620
    30  H    0.436449
 Sum of Mulliken charges =  -0.00000

 Dipole moment (field-independent basis, Debye):
    X=              2.7359    Y=             -5.5664    Z=             -0.0288  Tot=              6.2025
 Quadrupole moment (field-independent basis, Debye-Ang):
   XX=            -83.4211   YY=            -72.9151   ZZ=            -91.9297
   XY=              2.7428   XZ=             -3.4294   YZ=             -2.7592

  Exact polarizability: 101.324   0.383  99.593   1.222  -1.285  86.795
 Approx polarizability: 133.590  -2.364 134.151   6.081   0.505 135.346

                      1                      2                      3
                      A                      A                      A
 Frequencies --     34.0458                58.7266                65.6650
 Red. masses --      5.4114                 6.3055                 5.2505
 Frc consts  --      0.0037                 0.0128                 0.0133
 IR Inten    --      1.2289                 0.9385                 9.1246

                      4                      5                      6
                      A                      A                      A
 Frequencies --    102.3018               109.6174               135.1105
 Red. masses --      5.2224                 6.5100                 3.4830
 Frc consts  --      0.0322                 0.0461                 0.0375
 IR Inten    --      0.8061                 0.3289                 2.3144

                      7                      8                      9
                      A                      A                      A
 Frequencies --    141.1524               164.1589               165.2359
 Red. masses --      4.1752                 6.1192                 4.0938
 Frc consts  --      0.0490                 0.0972                 0.0659
 IR Inten    --     20.9284                 0.7254                 3.6519

                     10                     11                     12
                      A                      A                      A
 Frequencies --    186.5185               212.4838               223.6993
 Red. masses --      1.5808                 3.7615                 2.0525
 Frc consts  --      0.0324                 0.1001                 0.0605
 IR Inten    --     80.7268                12.6830                43.3517

                     13                     14                     15
                      A                      A                      A
 Frequencies --    228.8508               238.8245               255.1037
 Red. masses --      1.8020                 4.8779                 4.8504
 Frc consts  --      0.0556                 0.1639                 0.1860
 IR Inten    --     78.9543                28.9728                14.9039

                     16                     17                     18
                      A                      A                      A
 Frequencies --    281.2571               322.1130               338.0050
 Red. masses --      6.2612                 3.7314                 3.8481
 Frc consts  --      0.2918                 0.2281                 0.2590
 IR Inten    --     34.8449                14.2541                 5.8993

                     19                     20                     21
                      A                      A                      A
 Frequencies --    346.2282               349.6443               381.3844
 Red. masses --      2.1024                 1.6972                 5.4850
 Frc consts  --      0.1485                 0.1222                 0.4701
 IR Inten    --     60.9676               123.3127                 4.4675

                     22                     23                     24
                      A                      A                      A
 Frequencies --    395.2888               415.2616               459.9314
 Red. masses --      1.1255                 4.0759                 2.1691
 Frc consts  --      0.1036                 0.4141                 0.2703
 IR Inten    --     20.8730                 9.2834                42.6885

                     25                     26                     27
                      A                      A                      A
 Frequencies --    478.8894               482.7886               501.3274
 Red. masses --      1.2411                 1.5931                 4.3801
 Frc consts  --      0.1677                 0.2188                 0.6486
 IR Inten    --     94.7418                64.2199                10.2266

                     28                     29                     30
                      A                      A                      A
 Frequencies --    553.7127               567.5486               580.6579
 Red. masses --      1.3209                 3.3489                 3.1191
 Frc consts  --      0.2386                 0.6356                 0.6196
 IR Inten    --    124.1039                46.0042                28.2523

                     31                     32                     33
                      A                      A                      A
 Frequencies --    601.9226               686.3071               700.8494
 Red. masses --      3.9490                 1.1054                 1.0983
 Frc consts  --      0.8430                 0.3068                 0.3179
 IR Inten    --      8.3629                60.3526               142.0001

                     34                     35                     36
                      A                      A                      A
 Frequencies --    755.1080               788.0074               800.1079
 Red. masses --      3.1574                 1.5402                 1.3245
 Frc consts  --      1.0607                 0.5635                 0.4996
 IR Inten    --      9.9600                59.4814               119.9875

                     37                     38                     39
                      A                      A                      A
 Frequencies --    876.2876               951.6954               993.1869
 Red. masses --      3.1573                 1.6542                 1.1019
 Frc consts  --      1.4284                 0.8827                 0.6404
 IR Inten    --     51.6541                17.2294               135.7741

                     40                     41                     42
                      A                      A                      A
 Frequencies --   1013.9539              1043.8354              1064.1694
 Red. masses --      2.2530                 2.1485                 3.8048
 Frc consts  --      1.3647                 1.3793                 2.5387
 IR Inten    --     39.0203                46.8553                19.4984

                     43                     44                     45
                      A                      A                      A
 Frequencies --   1077.5013              1095.4065              1105.9912
 Red. masses --      5.6903                 4.3328                 3.6835
 Frc consts  --      3.8924                 3.0632                 2.6547
 IR Inten    --    140.7943                69.7738                60.4999

                     46                     47                     48
                      A                      A                      A
 Frequencies --   1113.9261              1129.2724              1162.0878
 Red. masses --      3.1949                 3.6741                 2.8967
 Frc consts  --      2.3357                 2.7606                 2.3048
 IR Inten    --     23.9041                39.9846                65.7520

                     49                     50                     51
                      A                      A                      A
 Frequencies --   1222.8749              1242.4000              1275.6993
 Red. masses --      1.0856                 1.1326                 1.1811
 Frc consts  --      0.9565                 1.0300                 1.1325
 IR Inten    --     14.0308                14.9084                19.9745

                     52                     53                     54
                      A                      A                      A
 Frequencies --   1303.7642              1322.6108              1354.1798
 Red. masses --      1.2852                 1.2594                 1.2609
 Frc consts  --      1.2871                 1.2980                 1.3623
 IR Inten    --     25.6222                 3.2170                24.8708

                     55                     56                     57
                      A                      A                      A
 Frequencies --   1368.1761              1377.2127              1396.7034
 Red. masses --      1.2565                 1.3369                 1.3722
 Frc consts  --      1.3858                 1.4940                 1.5771
 IR Inten    --      3.1623                31.5407                10.1703

                     58                     59                     60
                      A                      A                      A
 Frequencies --   1414.9582              1416.8999              1422.9281
 Red. masses --      1.2547                 1.3014                 1.3439
 Frc consts  --      1.4800                 1.5393                 1.6032
 IR Inten    --     25.9318                14.2538                21.2932

                     61                     62                     63
                      A                      A                      A
 Frequencies --   1463.6004              1476.1062              1477.0266
 Red. masses --      1.2226                 1.2185                 1.2304
 Frc consts  --      1.5431                 1.5643                 1.5815
 IR Inten    --     90.8602                77.4265                20.3262

                     64                     65                     66
                      A                      A                      A
 Frequencies --   1506.2739              1538.3026              1716.5568
 Red. masses --      1.3387                 1.0801                 1.1071
 Frc consts  --      1.7895                 1.5059                 1.9221
 IR Inten    --     31.0180                 1.9702                72.5470

                     67                     68                     69
                      A                      A                      A
 Frequencies --   1727.9748              1740.9993              2981.5023
 Red. masses --      5.6213                 1.1164                 1.0818
 Frc consts  --      9.8892                 1.9938                 5.6657
 IR Inten    --    196.4296                12.2718                29.8032

                     70                     71                     72
                      A                      A                      A
 Frequencies --   3021.5026              3029.7623              3038.8422
 Red. masses --      1.0853                 1.0899                 1.0603
 Frc consts  --      5.8376                 5.8946                 5.7691
 IR Inten    --     29.9404                48.6947                48.4589

                     73                     74                     75
                      A                      A                      A
 Frequencies --   3083.1512              3086.8158              3101.0773
 Red. masses --      1.0868                 1.1034                 1.0862
 Frc consts  --      6.0870                 6.1945                 6.1544
 IR Inten    --     35.8932                44.9720                23.6082

                     76                     77                     78
                      A                      A                      A
 Frequencies --   3289.0049              3407.1368              3543.1035
 Red. masses --      1.0692                 1.0623                 1.0576
 Frc consts  --      6.8147                 7.2654                 7.8223
 IR Inten    --    712.6655               706.4519               690.3841

                     79                     80                     81
                      A                      A                      A
 Frequencies --   3612.4019              3646.8538              3719.8749
 Red. masses --      1.0671                 1.0657                 1.0655
 Frc consts  --      8.2048                 8.3508                 8.6869
 IR Inten    --     86.6936               105.7622                73.3181

                     82                     83                     84
                      A                      A                      A
 Frequencies --   3750.6121              3803.8816              3807.5140
 Red. masses --      1.0666                 1.0675                 1.0703
 Frc consts  --      8.8403                 9.1007                 9.1416
 IR Inten    --     17.1200                43.6326                83.8848

 - Thermochemistry -
 -------------------
 Temperature   298.150 Kelvin.  Pressure   1.00000 Atm.
 Atom     1 has atomic number  6 and mass  12.00000

 Molecular mass:   216.08452 amu.
 Principal axes and moments of inertia in atomic units:
                           1         2         3
     Eigenvalues --  2515.560233601.106424141.87015
           X            0.99993   0.00705  -0.00973
           Y           -0.00715   0.99992  -0.01058
           Z            0.00966   0.01064   0.99990
 This molecule is an asymmetric top.
 Rotational symmetry number  1.
 Warning -- assumption of classical behavior for rotation
           may cause significant error
 Rotational temperatures (Kelvin)      0.03443     0.02405     0.02091
 Rotational constants (GHZ):           0.71743     0.50116     0.43573
 Zero-point vibrational energy     648516.1 (Joules/Mol)
                                  154.99908 (Kcal/Mol)
 Warning -- explicit consideration of  31 degrees of freedom as
           vibrations may cause significant error
 Vibrational temperatures:     48.98    84.49    94.48   147.19   157.71
          (Kelvin)            194.39   203.09   236.19   237.74   268.36
                              305.72   321.85   329.26   343.61   367.04
                              404.67   463.45   486.31   498.14   503.06
                              548.73   568.73   597.47   661.74   689.01
                              694.62   721.30   796.67   816.57   835.44
                              866.03   987.44  1008.36  1086.43  1133.77
                             1151.18  1260.78  1369.28  1428.97  1458.85
                             1501.84  1531.10  1550.28  1576.04  1591.27
                             1602.69  1624.77  1671.98  1759.44  1787.53
                             1835.44  1875.82  1902.94  1948.36  1968.50
                             1981.50  2009.54  2035.81  2038.60  2047.27
                             2105.79  2123.78  2125.11  2167.19  2213.27
                             2469.74  2486.17  2504.91  4289.71  4347.26
                             4359.15  4372.21  4435.96  4441.23  4461.75
                             4732.14  4902.10  5097.73  5197.43  5247.00
                             5352.06  5396.29  5472.93  5478.16

 Zero-point correction=                           0.247007 (Hartree/Particle)
 Thermal correction to Energy=                    0.265023
 Thermal correction to Enthalpy=                  0.265967
 Thermal correction to Gibbs Free Energy=         0.202271
 Sum of electronic and zero-point Energies=           -839.742018
 Sum of electronic and thermal Energies=              -839.724002
 Sum of electronic and thermal Enthalpies=            -839.723058
 Sum of electronic and thermal Free Energies=         -839.786754

                     E (Thermal)             CV                S
                      KCal/Mol        Cal/Mol-Kelvin    Cal/Mol-Kelvin
 Total                  166.304             65.991            134.060
 Electronic               0.000              0.000              0.000
 Translational            0.889              2.981             42.015
 Rotational               0.889              2.981             31.995
 Vibrational            164.527             60.030             60.050
 Vibration     1          0.594              1.983              5.579
 Vibration     2          0.596              1.974              4.500
 Vibration     3          0.597              1.971              4.279
 Vibration     4          0.604              1.947              3.410
 Vibration     5          0.606              1.942              3.276
 Vibration     6          0.613              1.918              2.872
 Vibration     7          0.615              1.912              2.788
 Vibration     8          0.623              1.886              2.501
 Vibration     9          0.624              1.885              2.489
 Vibration    10          0.632              1.858              2.262
 Vibration    11          0.644              1.822              2.022
 Vibration    12          0.649              1.805              1.929
 Vibration    13          0.652              1.797              1.888
 Vibration    14          0.657              1.781              1.812
 Vibration    15          0.665              1.754              1.695
 Vibration    16          0.681              1.708              1.526
 Vibration    17          0.707              1.631              1.299
 Vibration    18          0.718              1.600              1.222
 Vibration    19          0.724              1.583              1.183
 Vibration    20          0.727              1.576              1.168
 Vibration    21          0.751              1.510              1.034
 Vibration    22          0.762              1.480              0.980
 Vibration    23          0.779              1.437              0.908
 Vibration    24          0.818              1.339              0.766
 Vibration    25          0.835              1.297              0.713
 Vibration    26          0.839              1.288              0.703
 Vibration    27          0.857              1.247              0.655
 Vibration    28          0.909              1.132              0.537
 Vibration    29          0.924              1.101              0.509
 Vibration    30          0.937              1.073              0.484
 Vibration    31          0.960              1.028              0.446

 Normal termination of Gaussian 09 at Sun Jan 15 13:45:52 2017.
