 Gaussian 09, Revision E.01,
 Gaussian 09:  ES64L-G09RevE.01 30-Nov-2015

 -------------------------------------
 # b3lyp/6-31g(d) irc=(calcfc,forward)
 -------------------------------------

 --------------------------------
 glo_2w_beta_ts_boat1_B3LYP_631Gd
 --------------------------------
 Symbolic Z-matrix:
 Charge =  0 Multiplicity = 1

 SCF Done:  E(RB3LYP) =  -839.962047726     A.U. after   14 cycles
 SCF Done:  E(RB3LYP) =  -839.962448536     A.U. after   11 cycles
 SCF Done:  E(RB3LYP) =  -839.963703514     A.U. after   11 cycles
 SCF Done:  E(RB3LYP) =  -839.965783167     A.U. after   11 cycles
 SCF Done:  E(RB3LYP) =  -839.968512168     A.U. after   11 cycles
 SCF Done:  E(RB3LYP) =  -839.971583454     A.U. after   11 cycles
 SCF Done:  E(RB3LYP) =  -839.974588455     A.U. after   11 cycles
 SCF Done:  E(RB3LYP) =  -839.977127142     A.U. after   11 cycles
 SCF Done:  E(RB3LYP) =  -839.979100355     A.U. after   11 cycles
 SCF Done:  E(RB3LYP) =  -839.980788167     A.U. after   11 cycles
 SCF Done:  E(RB3LYP) =  -839.982357531     A.U. after   10 cycles

                          Input orientation:
 ---------------------------------------------------------------------
 Center     Atomic      Atomic             Coordinates (Angstroms)
 Number     Number       Type             X           Y           Z
 ---------------------------------------------------------------------
      1          1           0        0.387366    1.577536    1.546057
      2          6           0        0.058899    1.128296    0.599304
      3          6           0        1.856469   -0.560091    0.256946
      4          6           0       -0.543165   -1.337209   -0.123555
      5          6           0        0.948257   -1.686327   -0.243215
      6          8           0       -0.634627   -0.082639    0.937373
      7          6           0        1.325664    0.794406   -0.201317
      8          1           0       -1.076111   -2.069367    0.491880
      9          1           0        1.163989   -1.835363   -1.310922
     10          1           0        1.090928    0.740491   -1.276035
     11          6           0       -0.831910    2.131670   -0.143773
     12          1           0       -1.703500    2.402366    0.466823
     13          1           0       -1.184666    1.671957   -1.076594
     14          8           0       -1.119322   -1.031439   -1.287506
     15          1           0        1.862862   -0.587384    1.357378
     16          8           0       -0.008166    3.277382   -0.406817
     17          1           0       -0.492343    3.877124   -0.992726
     18          8           0        1.166274   -2.885767    0.490744
     19          1           0        2.118204   -3.069166    0.429910
     20          8           0        3.158302   -0.809966   -0.253263
     21          1           0        3.641845    0.029005   -0.156155
     22          8           0        2.349296    1.754561    0.027277
     23          1           0        1.975126    2.608635   -0.253839
     24          8           0       -3.044952    0.223847    1.226700
     25          1           0       -2.136767   -1.066003   -1.183871
     26          1           0       -2.032783    0.116278    1.211197
     27          1           0       -3.362046   -0.255680    2.006478
     28          8           0       -3.524250   -1.002598   -0.830622
     29          1           0       -3.469437   -0.457897    0.026989
     30          1           0       -3.986344   -0.454111   -1.481281
 ---------------------------------------------------------------------

 Alpha  occ. eigenvalues --  -19.17041 -19.15866 -19.14777 -19.14515 -19.14314
 Alpha  occ. eigenvalues --  -19.14252 -19.14115 -19.13832 -10.29326 -10.24134
 Alpha  occ. eigenvalues --  -10.24058 -10.23502 -10.23334 -10.22839  -1.05948
 Alpha  occ. eigenvalues --   -1.04086  -1.03136  -1.02161  -1.01575  -1.00779
 Alpha  occ. eigenvalues --   -0.99894  -0.98021  -0.77485  -0.75938  -0.69388
 Alpha  occ. eigenvalues --   -0.63593  -0.61386  -0.56563  -0.55974  -0.54567
 Alpha  occ. eigenvalues --   -0.54417  -0.53845  -0.51944  -0.50572  -0.48373
 Alpha  occ. eigenvalues --   -0.46636  -0.45012  -0.44307  -0.43301  -0.42346
 Alpha  occ. eigenvalues --   -0.41956  -0.41586  -0.40738  -0.38173  -0.37918
 Alpha  occ. eigenvalues --   -0.35965  -0.35023  -0.34723  -0.32915  -0.32153
 Alpha  occ. eigenvalues --   -0.30989  -0.30423  -0.29254  -0.28848  -0.27143
 Alpha  occ. eigenvalues --   -0.26400  -0.26181  -0.25728
 Alpha virt. eigenvalues --    0.03692   0.05885   0.06891   0.08818   0.09603
 Alpha virt. eigenvalues --    0.11085   0.11571   0.12888   0.13979   0.14568
 Alpha virt. eigenvalues --    0.15272   0.16750   0.17227   0.18364   0.19317

 Mulliken charges:
               1
     1  H    0.154115
     2  C    0.156653
     3  C    0.121180
     4  C    0.290195
     5  C    0.134580
     6  O   -0.626400
     7  C    0.077583
     8  H    0.160419
     9  H    0.154438
    10  H    0.135667
    11  C   -0.084891
    12  H    0.153072
    13  H    0.145689
    14  O   -0.619483
    15  H    0.134389
    16  O   -0.640394
    17  H    0.407345
    18  O   -0.648562
    19  H    0.408152
    20  O   -0.665589
    21  H    0.416200
    22  O   -0.673744
    23  H    0.421698
    24  O   -0.840378
    25  H    0.454891
    26  H    0.464697
    27  H    0.399680
    28  O   -0.831888
    29  H    0.444437
    30  H    0.396246
 Sum of Mulliken charges =  -0.00000

 Dipole moment (field-independent basis, Debye):
    X=             -2.4585    Y=              3.1707    Z=             -0.3723  Tot=              4.0294
 Quadrupole moment (field-independent basis, Debye-Ang):
   XX=            -79.0943   YY=            -80.6669   ZZ=            -79.9122
   XY=             -4.9957   XZ=              0.4133   YZ=             -7.5128

  Exact polarizability:   0.000   0.000   0.000   0.000   0.000   0.000
 Approx polarizability: 133.978   2.044 130.427   1.656  -0.370 125.208

 Normal termination of Gaussian 09 at Sat Jan 14 00:59:19 2017.
