 Gaussian 09, Revision E.01,
 Gaussian 09:  ES64L-G09RevE.01 30-Nov-2015

 -------------------------------------
 # b3lyp/6-31g(d) irc=(calcfc,forward)
 -------------------------------------

 --------------------------------
 glo_1w_beta_ts_boat1_B3LYP_631Gd
 --------------------------------
 Symbolic Z-matrix:
 Charge =  0 Multiplicity = 1

 SCF Done:  E(RB3LYP) =  -839.953068735     A.U. after   14 cycles
 SCF Done:  E(RB3LYP) =  -839.953528117     A.U. after   11 cycles
 SCF Done:  E(RB3LYP) =  -839.954845479     A.U. after   11 cycles
 SCF Done:  E(RB3LYP) =  -839.956802505     A.U. after   12 cycles
 SCF Done:  E(RB3LYP) =  -839.959043661     A.U. after   12 cycles
 SCF Done:  E(RB3LYP) =  -839.961188370     A.U. after   12 cycles
 SCF Done:  E(RB3LYP) =  -839.963056820     A.U. after   11 cycles
 SCF Done:  E(RB3LYP) =  -839.964733071     A.U. after   11 cycles
 SCF Done:  E(RB3LYP) =  -839.966308016     A.U. after   11 cycles
 SCF Done:  E(RB3LYP) =  -839.967829359     A.U. after   11 cycles
 SCF Done:  E(RB3LYP) =  -839.969312380     A.U. after   11 cycles

                          Input orientation:
 ---------------------------------------------------------------------
 Center     Atomic      Atomic             Coordinates (Angstroms)
 Number     Number       Type             X           Y           Z
 ---------------------------------------------------------------------
      1          1           0       -0.039494    1.585851    1.433044
      2          6           0       -0.492492    1.110351    0.549980
      3          6           0        1.123991   -0.754805    0.056178
      4          6           0       -1.325158   -1.478627    0.083713
      5          6           0        0.082047   -1.782997   -0.412863
      6          8           0       -1.262154    0.011644    1.014673
      7          6           0        0.679334    0.655937   -0.344283
      8          1           0       -1.619245   -2.073214    0.951906
      9          1           0        0.063176   -1.751241   -1.513322
     10          1           0        0.368967    0.628671   -1.400616
     11          6           0       -1.346568    2.167199   -0.170993
     12          1           0       -2.139895    2.538751    0.495285
     13          1           0       -1.812633    1.709821   -1.055798
     14          8           0       -2.232363   -1.322073   -0.875484
     15          1           0        1.202745   -0.814276    1.152836
     16          8           0       -0.464576    3.233646   -0.545370
     17          1           0       -0.921377    3.818875   -1.167019
     18          8           0        0.446969   -3.071571    0.050884
     19          1           0        1.401138   -3.128782   -0.140648
     20          8           0        2.320821   -1.178958   -0.564512
     21          1           0        3.081583   -0.721394   -0.134703
     22          8           0        1.759443    1.583084   -0.207545
     23          1           0        1.387209    2.451422   -0.449507
     24          8           0       -3.666482   -0.064604    0.625005
     25          1           0       -3.064755   -0.974920   -0.411320
     26          1           0       -2.749570    0.191803    0.961366
     27          8           0        4.144130    0.505387    0.625555
     28          1           0        3.447884    1.140646    0.351242
     29          1           0        4.082732    0.481571    1.592487
     30          1           0       -4.059914    0.718746    0.215117
 ---------------------------------------------------------------------

 Alpha  occ. eigenvalues --  -19.18525 -19.16181 -19.16054 -19.15111 -19.15026
 Alpha  occ. eigenvalues --  -19.14861 -19.14013 -19.13207 -10.30179 -10.25721
 Alpha  occ. eigenvalues --  -10.24724 -10.24366 -10.24061 -10.23724  -1.07151
 Alpha  occ. eigenvalues --   -1.05559  -1.03836  -1.02480  -1.01092  -1.00730
 Alpha  occ. eigenvalues --   -0.99429  -0.98817  -0.77968  -0.76342  -0.70453
 Alpha  occ. eigenvalues --   -0.64054  -0.61808  -0.57464  -0.56503  -0.55438
 Alpha  occ. eigenvalues --   -0.53951  -0.53567  -0.52728  -0.51142  -0.48892
 Alpha  occ. eigenvalues --   -0.47570  -0.45478  -0.44794  -0.43591  -0.43433
 Alpha  occ. eigenvalues --   -0.42630  -0.41186  -0.40428  -0.39391  -0.38393
 Alpha  occ. eigenvalues --   -0.37527  -0.35692  -0.34596  -0.33635  -0.33085
 Alpha  occ. eigenvalues --   -0.30828  -0.30436  -0.30219  -0.29535  -0.27354
 Alpha  occ. eigenvalues --   -0.27105  -0.26693  -0.25460
 Alpha virt. eigenvalues --    0.01211   0.03981   0.05435   0.06675   0.09728
 Alpha virt. eigenvalues --    0.11127   0.11766   0.12254   0.13242   0.14340
 Alpha virt. eigenvalues --    0.15441   0.15636   0.16878   0.17989   0.19019

 Mulliken charges:
               1
     1  H    0.144630
     2  C    0.168129
     3  C    0.090233
     4  C    0.293835
     5  C    0.123909
     6  O   -0.630267
     7  C    0.106096
     8  H    0.179783
     9  H    0.152642
    10  H    0.129006
    11  C   -0.090240
    12  H    0.131370
    13  H    0.142855
    14  O   -0.591585
    15  H    0.127041
    16  O   -0.638009
    17  H    0.411560
    18  O   -0.653536
    19  H    0.412312
    20  O   -0.684080
    21  H    0.435126
    22  O   -0.682670
    23  H    0.429452
    24  O   -0.830701
    25  H    0.449572
    26  H    0.454088
    27  O   -0.802076
    28  H    0.433797
    29  H    0.393986
    30  H    0.393743
 Sum of Mulliken charges =  -0.00000

 Dipole moment (field-independent basis, Debye):
    X=             -2.0628    Y=              5.2877    Z=              0.0857  Tot=              5.6765
 Quadrupole moment (field-independent basis, Debye-Ang):
   XX=            -88.9607   YY=            -78.3043   ZZ=            -82.1454
   XY=             -9.7880   XZ=             10.6251   YZ=             -5.1794

  Exact polarizability:   0.000   0.000   0.000   0.000   0.000   0.000
 Approx polarizability: 139.338   1.073 139.281   6.102   4.426 123.849

 Normal termination of Gaussian 09 at Sat Jan 14 00:56:29 2017.
