 Gaussian 09, Revision E.01,
 Gaussian 09:  ES64L-G09RevE.01 30-Nov-2015

 -----------------------------------------
 # opt=(MaxCycle=1000) freq B3LYP/6-31G(d)
 -----------------------------------------

 ----------------------------------------------
 ./boats/2/glo_1w_beta_ts_boat2_B3LYP_631Gd.out
 ----------------------------------------------
 Symbolic Z-matrix:
 Charge =  0 Multiplicity = 1

 SCF Done:  E(RB3LYP) =  -839.967306384     A.U. after   14 cycles
 SCF Done:  E(RB3LYP) =  -839.867394587     A.U. after   14 cycles
 SCF Done:  E(RB3LYP) =  -839.974622011     A.U. after   11 cycles
 SCF Done:  E(RB3LYP) =  -839.980117428     A.U. after   11 cycles
 SCF Done:  E(RB3LYP) =  -839.982861807     A.U. after   12 cycles
 SCF Done:  E(RB3LYP) =  -839.986485573     A.U. after   11 cycles
 SCF Done:  E(RB3LYP) =  -839.989274102     A.U. after   12 cycles
 SCF Done:  E(RB3LYP) =  -839.990884612     A.U. after   12 cycles
 SCF Done:  E(RB3LYP) =  -839.992232018     A.U. after   11 cycles
 SCF Done:  E(RB3LYP) =  -839.992330120     A.U. after   11 cycles
 SCF Done:  E(RB3LYP) =  -840.004033125     A.U. after    8 cycles
 SCF Done:  E(RB3LYP) =  -840.004041750     A.U. after    8 cycles
 SCF Done:  E(RB3LYP) =  -840.004044602     A.U. after    8 cycles
 SCF Done:  E(RB3LYP) =  -840.004045863     A.U. after    7 cycles
 SCF Done:  E(RB3LYP) =  -840.004047168     A.U. after    7 cycles
 SCF Done:  E(RB3LYP) =  -840.004049027     A.U. after    8 cycles
 SCF Done:  E(RB3LYP) =  -840.004050531     A.U. after    8 cycles
 SCF Done:  E(RB3LYP) =  -840.004051233     A.U. after    7 cycles
 SCF Done:  E(RB3LYP) =  -840.004051545     A.U. after    7 cycles
 Optimization completed.
    -- Stationary point found.
 Normal termination of Gaussian 09 at Sun Jan 15 13:57:27 2017.

 --------------------------------------------------------------------
 #N Geom=AllCheck Guess=TCheck SCRF=Check GenChk RB3LYP/6-31G(d) Freq
 --------------------------------------------------------------------

 Structure from the checkpoint file:  "/scratch/10462963.yak.local/Gau-26155.chk"
 ----------------------------------------------
 ./boats/2/glo_1w_beta_ts_boat2_B3LYP_631Gd.out
 ----------------------------------------------
 Charge =  0 Multiplicity = 1

                         Standard orientation:
 ---------------------------------------------------------------------
 Center     Atomic      Atomic             Coordinates (Angstroms)
 Number     Number       Type             X           Y           Z
 ---------------------------------------------------------------------
      1          6           0        1.236115   -0.958588   -1.202973
      2          8           0        1.168296    0.489659   -1.005901
      3          1           0        3.590396    0.902986    1.334746
      4          8           0        2.486961   -1.382025   -0.767769
      5          1           0        2.384553   -1.548782    0.191655
      6          8           0        2.642063    1.089569    1.259463
      7          1           0        2.422781    0.938186    0.313279
      8          6           0       -0.499484    0.477487    0.763816
      9          6           0       -0.117110    1.000486   -0.635742
     10          6           0       -0.046245    2.525392   -0.674885
     11          8           0       -1.322889    3.083967   -0.314807
     12          8           0       -1.903682    0.642091    1.001994
     13          1           0        1.168815   -1.141834   -2.279172
     14          1           0       -2.089675    1.577025    0.781258
     15          1           0        0.048298    1.049748    1.525719
     16          1           0       -0.872949    0.649062   -1.347287
     17          1           0        0.275592    2.871114   -1.664881
     18          1           0        0.669346    2.893841    0.066166
     19          1           0       -1.891337    3.046329   -1.100414
     20          8           0       -3.337330   -1.600424    0.230761
     21          1           0       -3.012925   -0.723610    0.536494
     22          1           0       -3.495497   -2.104392    1.042748
     23          6           0       -0.109503   -1.010776    0.914911
     24          1           0       -0.915150   -1.518274    1.457657
     25          6           0        0.091324   -1.682101   -0.463653
     26          1           0        0.430813   -2.715583   -0.293073
     27          8           0        1.097480   -1.187000    1.667881
     28          1           0        1.575184   -0.328325    1.745841
     29          8           0       -1.051326   -1.647153   -1.290907
     30          1           0       -1.855419   -1.868352   -0.765289
 ---------------------------------------------------------------------

 SCF Done:  E(RB3LYP) =  -840.004051545     A.U. after    1 cycles

 The electronic state is 1-A.
 Alpha  occ. eigenvalues --  -19.18367 -19.16935 -19.16822 -19.15915 -19.15068
 Alpha  occ. eigenvalues --  -19.15042 -19.14852 -19.13147 -10.28579 -10.25140
 Alpha  occ. eigenvalues --  -10.24987 -10.24591 -10.24534 -10.23624  -1.07440
 Alpha  occ. eigenvalues --   -1.05233  -1.03707  -1.02178  -1.01497  -1.01238
 Alpha  occ. eigenvalues --   -1.00726  -0.99955  -0.78268  -0.76157  -0.69931
 Alpha  occ. eigenvalues --   -0.65060  -0.64007  -0.58518  -0.55296  -0.54645
 Alpha  occ. eigenvalues --   -0.53859  -0.52662  -0.51570  -0.50974  -0.49849
 Alpha  occ. eigenvalues --   -0.48931  -0.46743  -0.45481  -0.44285  -0.42073
 Alpha  occ. eigenvalues --   -0.41763  -0.41358  -0.40476  -0.39377  -0.38504
 Alpha  occ. eigenvalues --   -0.36442  -0.35861  -0.35188  -0.34815  -0.33967
 Alpha  occ. eigenvalues --   -0.31376  -0.30881  -0.30449  -0.30090  -0.29276
 Alpha  occ. eigenvalues --   -0.27709  -0.26175  -0.24985
 Alpha virt. eigenvalues --    0.03423   0.05989   0.06449   0.08358   0.09737
 Alpha virt. eigenvalues --    0.12205   0.12574   0.13242   0.14542   0.14649
 Alpha virt. eigenvalues --    0.15633   0.16334   0.17084   0.17921   0.19145

 Mulliken charges:
               1
     1  C    0.348472
     2  O   -0.550267
     3  H    0.402491
     4  O   -0.633141
     5  H    0.406420
     6  O   -0.815684
     7  H    0.429426
     8  C    0.088827
     9  C    0.103713
    10  C   -0.082307
    11  O   -0.623175
    12  O   -0.675916
    13  H    0.157388
    14  H    0.420726
    15  H    0.155659
    16  H    0.164540
    17  H    0.155212
    18  H    0.177858
    19  H    0.406901
    20  O   -0.811849
    21  H    0.434763
    22  H    0.396473
    23  C    0.099697
    24  H    0.132414
    25  C    0.063947
    26  H    0.140589
    27  O   -0.692378
    28  H    0.437459
    29  O   -0.673432
    30  H    0.435177
 Sum of Mulliken charges =  -0.00000

 Dipole moment (field-independent basis, Debye):
    X=             -0.5347    Y=              2.0391    Z=              0.5579  Tot=              2.1806
 Quadrupole moment (field-independent basis, Debye-Ang):
   XX=            -79.1091   YY=            -82.9756   ZZ=            -85.9558
   XY=              0.3331   XZ=             -0.0067   YZ=             -9.6387

  Exact polarizability: 103.350  -0.652  95.273   0.653  -1.722  83.086
 Approx polarizability: 141.357  -1.489 124.505   3.305  -1.195 122.761

                      1                      2                      3
                      A                      A                      A
 Frequencies --     64.5323                76.3976                84.0713
 Red. masses --      5.8797                 5.4613                 5.4228
 Frc consts  --      0.0144                 0.0188                 0.0226
 IR Inten    --      2.6827                 3.8915                 7.4187

                      4                      5                      6
                      A                      A                      A
 Frequencies --    112.1959               148.8771               169.7375
 Red. masses --      5.5492                 4.5100                 5.5529
 Frc consts  --      0.0412                 0.0589                 0.0943
 IR Inten    --      1.4383                 9.6145                 0.9626

                      7                      8                      9
                      A                      A                      A
 Frequencies --    176.0862               183.1509               203.6331
 Red. masses --      8.0638                 4.3461                 6.5134
 Frc consts  --      0.1473                 0.0859                 0.1591
 IR Inten    --      5.4204                19.4617                10.2398

                     10                     11                     12
                      A                      A                      A
 Frequencies --    229.2785               249.7835               254.6626
 Red. masses --      4.6824                 4.2227                 6.4017
 Frc consts  --      0.1450                 0.1552                 0.2446
 IR Inten    --      9.4496                 5.4328                 3.2382

                     13                     14                     15
                      A                      A                      A
 Frequencies --    290.3031               306.6986               319.1239
 Red. masses --      3.3221                 1.2253                 1.3881
 Frc consts  --      0.1650                 0.0679                 0.0833
 IR Inten    --     25.2086               196.4213                30.2669

                     16                     17                     18
                      A                      A                      A
 Frequencies --    329.8397               340.1129               351.8506
 Red. masses --      3.0258                 1.2090                 1.8516
 Frc consts  --      0.1940                 0.0824                 0.1351
 IR Inten    --     31.7023                50.1582                52.1209

                     19                     20                     21
                      A                      A                      A
 Frequencies --    360.6780               374.8384               392.4486
 Red. masses --      2.0427                 2.6134                 1.9590
 Frc consts  --      0.1566                 0.2163                 0.1778
 IR Inten    --    129.9494                17.8603                48.2095

                     22                     23                     24
                      A                      A                      A
 Frequencies --    418.1037               458.7756               473.8101
 Red. masses --      2.0205                 5.6449                 3.9100
 Frc consts  --      0.2081                 0.7000                 0.5172
 IR Inten    --     43.1781                 6.8144                 7.3492

                     25                     26                     27
                      A                      A                      A
 Frequencies --    510.7182               539.0658               564.0870
 Red. masses --      5.3835                 3.8922                 3.8253
 Frc consts  --      0.8273                 0.6664                 0.7171
 IR Inten    --     19.0123                 6.8020                 4.9725

                     28                     29                     30
                      A                      A                      A
 Frequencies --    581.7809               640.9324               655.6620
 Red. masses --      1.3035                 1.2994                 2.3264
 Frc consts  --      0.2600                 0.3145                 0.5893
 IR Inten    --     54.5263               141.8910               154.8572

                     31                     32                     33
                      A                      A                      A
 Frequencies --    678.2596               727.9025               811.7360
 Red. masses --      1.1553                 1.0787                 5.3855
 Frc consts  --      0.3131                 0.3368                 2.0908
 IR Inten    --    174.7496               132.6444                76.8270

                     34                     35                     36
                      A                      A                      A
 Frequencies --    862.3310               890.4850               910.7400
 Red. masses --      3.1174                 2.1956                 1.1933
 Frc consts  --      1.3658                 1.0258                 0.5832
 IR Inten    --     11.3195                12.7600                73.4893

                     37                     38                     39
                      A                      A                      A
 Frequencies --    917.4650               949.2643              1020.7034
 Red. masses --      1.0616                 2.1850                 2.5635
 Frc consts  --      0.5265                 1.1600                 1.5736
 IR Inten    --    108.7101                35.3524                57.6211

                     40                     41                     42
                      A                      A                      A
 Frequencies --   1035.2381              1055.8846              1077.0553
 Red. masses --      5.4462                 4.8515                 4.0027
 Frc consts  --      3.4389                 3.1868                 2.7357
 IR Inten    --    130.8229               122.6704               173.5023

                     43                     44                     45
                      A                      A                      A
 Frequencies --   1087.8335              1096.5912              1113.5954
 Red. masses --      2.2083                 4.5955                 2.7365
 Frc consts  --      1.5397                 3.2559                 1.9994
 IR Inten    --     48.4881                25.4850                52.3037

                     46                     47                     48
                      A                      A                      A
 Frequencies --   1137.4041              1149.0584              1156.7869
 Red. masses --      3.6022                 2.2906                 3.1822
 Frc consts  --      2.7457                 1.7819                 2.5089
 IR Inten    --     28.9299                 0.6925                70.8619

                     49                     50                     51
                      A                      A                      A
 Frequencies --   1196.5670              1269.7289              1296.5813
 Red. masses --      1.5689                 1.5530                 1.1102
 Frc consts  --      1.3235                 1.4751                 1.0996
 IR Inten    --     38.2652                 6.1717                33.0285

                     52                     53                     54
                      A                      A                      A
 Frequencies --   1309.4187              1329.5875              1349.0941
 Red. masses --      1.1561                 1.2715                 1.1598
 Frc consts  --      1.1679                 1.3243                 1.2437
 IR Inten    --     12.6658                 2.2181                 7.1273

                     55                     56                     57
                      A                      A                      A
 Frequencies --   1357.8612              1359.9976              1384.1611
 Red. masses --      1.2564                 1.1397                 1.2337
 Frc consts  --      1.3648                 1.2420                 1.3926
 IR Inten    --     15.4531                14.4026                12.0200

                     58                     59                     60
                      A                      A                      A
 Frequencies --   1399.9350              1402.9589              1425.8667
 Red. masses --      1.2898                 1.2871                 1.4144
 Frc consts  --      1.4893                 1.4926                 1.6942
 IR Inten    --      4.1065                46.1516                10.0128

                     61                     62                     63
                      A                      A                      A
 Frequencies --   1433.5312              1470.7516              1478.4042
 Red. masses --      1.3446                 1.2931                 1.4181
 Frc consts  --      1.6280                 1.6480                 1.8262
 IR Inten    --     22.4303                28.3187                43.4096

                     64                     65                     66
                      A                      A                      A
 Frequencies --   1490.4481              1513.5992              1540.6636
 Red. masses --      1.2824                 1.2964                 1.0862
 Frc consts  --      1.6784                 1.7498                 1.5191
 IR Inten    --     20.0830               142.4571                 2.3141

                     67                     68                     69
                      A                      A                      A
 Frequencies --   1707.1622              1718.5325              3010.3682
 Red. masses --      1.0784                 1.0762                 1.0845
 Frc consts  --      1.8518                 1.8727                 5.7903
 IR Inten    --     88.0382                48.9580                54.8270

                     70                     71                     72
                      A                      A                      A
 Frequencies --   3031.3246              3059.9436              3070.3986
 Red. masses --      1.0847                 1.0631                 1.0860
 Frc consts  --      5.8726                 5.8647                 6.0320
 IR Inten    --     20.3011                38.3050                40.6393

                     73                     74                     75
                      A                      A                      A
 Frequencies --   3074.8912              3105.6665              3127.5096
 Red. masses --      1.0856                 1.0885                 1.1048
 Frc consts  --      6.0474                 6.1855                 6.3671
 IR Inten    --     18.7051                43.2759                21.4383

                     76                     77                     78
                      A                      A                      A
 Frequencies --   3448.4038              3452.4888              3537.3743
 Red. masses --      1.0679                 1.0677                 1.0596
 Frc consts  --      7.4822                 7.4984                 7.8120
 IR Inten    --    338.3284               164.7563               747.6942

                     79                     80                     81
                      A                      A                      A
 Frequencies --   3545.2496              3592.6467              3613.2593
 Red. masses --      1.0591                 1.0653                 1.0652
 Frc consts  --      7.8429                 8.1009                 8.1938
 IR Inten    --    346.4471               125.0878               147.9824

                     82                     83                     84
                      A                      A                      A
 Frequencies --   3741.9891              3797.5057              3804.3596
 Red. masses --      1.0665                 1.0703                 1.0699
 Frc consts  --      8.7983                 9.0942                 9.1237
 IR Inten    --     28.9107                72.9647                63.4615

 - Thermochemistry -
 -------------------
 Temperature   298.150 Kelvin.  Pressure   1.00000 Atm.
 Atom     1 has atomic number  6 and mass  12.00000

 Molecular mass:   216.08452 amu.
 Principal axes and moments of inertia in atomic units:
                           1         2         3
     Eigenvalues --  2614.772512965.748304072.96763
           X            0.99791   0.06444   0.00478
           Y           -0.06435   0.99779  -0.01684
           Z           -0.00585   0.01650   0.99985
 This molecule is an asymmetric top.
 Rotational symmetry number  1.
 Warning -- assumption of classical behavior for rotation
           may cause significant error
 Rotational temperatures (Kelvin)      0.03312     0.02920     0.02127
 Rotational constants (GHZ):           0.69021     0.60853     0.44310
 Zero-point vibrational energy     657873.1 (Joules/Mol)
                                  157.23545 (Kcal/Mol)
 Warning -- explicit consideration of  28 degrees of freedom as
           vibrations may cause significant error
 Vibrational temperatures:     92.85   109.92   120.96   161.42   214.20
          (Kelvin)            244.21   253.35   263.51   292.98   329.88
                              359.38   366.40   417.68   441.27   459.15
                              474.57   489.35   506.23   518.93   539.31
                              564.65   601.56   660.07   681.71   734.81
                              775.59   811.59   837.05   922.16   943.35
                              975.86  1047.29  1167.91  1240.70  1281.21
                             1310.35  1320.03  1365.78  1468.56  1489.47
                             1519.18  1549.64  1565.15  1577.75  1602.21
                             1636.47  1653.24  1664.36  1721.59  1826.85
                             1865.49  1883.96  1912.98  1941.04  1953.66
                             1956.73  1991.50  2014.19  2018.54  2051.50
                             2062.53  2116.08  2127.09  2144.42  2177.73
                             2216.67  2456.22  2472.58  4331.24  4361.39
                             4402.57  4417.61  4424.08  4468.36  4499.78
                             4961.48  4967.36  5089.49  5100.82  5169.01
                             5198.67  5383.88  5463.76  5473.62

 Zero-point correction=                           0.250571 (Hartree/Particle)
 Thermal correction to Energy=                    0.267109
 Thermal correction to Enthalpy=                  0.268053
 Thermal correction to Gibbs Free Energy=         0.208573
 Sum of electronic and zero-point Energies=           -839.753481
 Sum of electronic and thermal Energies=              -839.736943
 Sum of electronic and thermal Enthalpies=            -839.735999
 Sum of electronic and thermal Free Energies=         -839.795478

                     E (Thermal)             CV                S
                      KCal/Mol        Cal/Mol-Kelvin    Cal/Mol-Kelvin
 Total                  167.613             63.070            125.185
 Electronic               0.000              0.000              0.000
 Translational            0.889              2.981             42.015
 Rotational               0.889              2.981             31.824
 Vibrational            165.836             57.108             51.346
 Vibration     1          0.597              1.971              4.314
 Vibration     2          0.599              1.965              3.981
 Vibration     3          0.601              1.960              3.794
 Vibration     4          0.607              1.939              3.231
 Vibration     5          0.618              1.904              2.687
 Vibration     6          0.625              1.880              2.438
 Vibration     7          0.628              1.872              2.370
 Vibration     8          0.631              1.863              2.296
 Vibration     9          0.639              1.835              2.100
 Vibration    10          0.652              1.796              1.885
 Vibration    11          0.663              1.763              1.732
 Vibration    12          0.665              1.755              1.698
 Vibration    13          0.686              1.692              1.472
 Vibration    14          0.697              1.661              1.380
 Vibration    15          0.705              1.637              1.315
 Vibration    16          0.713              1.616              1.261
 Vibration    17          0.720              1.595              1.212
 Vibration    18          0.728              1.571              1.158
 Vibration    19          0.735              1.553              1.119
 Vibration    20          0.746              1.524              1.060
 Vibration    21          0.760              1.486              0.991
 Vibration    22          0.781              1.431              0.898
 Vibration    23          0.817              1.341              0.770
 Vibration    24          0.831              1.308              0.727
 Vibration    25          0.866              1.226              0.632
 Vibration    26          0.894              1.164              0.567
 Vibration    27          0.920              1.109              0.516
 Vibration    28          0.939              1.071              0.482

 Normal termination of Gaussian 09 at Sun Jan 15 14:16:36 2017.
