 Gaussian 09, Revision E.01,
 Gaussian 09:  ES64L-G09RevE.01 30-Nov-2015

 -----------------------------------------
 # opt=(MaxCycle=1000) freq B3LYP/6-31G(d)
 -----------------------------------------

 ----------------------------------------------
 ./boats/2/glo_2w_beta_ts_boat2_B3LYP_631Gd.out
 ----------------------------------------------
 Symbolic Z-matrix:
 Charge =  0 Multiplicity = 1

 SCF Done:  E(RB3LYP) =  -839.964861505     A.U. after   14 cycles
 SCF Done:  E(RB3LYP) =  -839.964487551     A.U. after   14 cycles
 SCF Done:  E(RB3LYP) =  -839.969731147     A.U. after   11 cycles
 SCF Done:  E(RB3LYP) =  -839.972868860     A.U. after   12 cycles
 SCF Done:  E(RB3LYP) =  -839.977099641     A.U. after   13 cycles
 SCF Done:  E(RB3LYP) =  -839.978024626     A.U. after   13 cycles
 SCF Done:  E(RB3LYP) =  -839.981082332     A.U. after   12 cycles
 SCF Done:  E(RB3LYP) =  -839.979520515     A.U. after   13 cycles
 SCF Done:  E(RB3LYP) =  -839.982321530     A.U. after   10 cycles
 SCF Done:  E(RB3LYP) =  -839.982694748     A.U. after   12 cycles
 SCF Done:  E(RB3LYP) =  -839.985852290     A.U. after    9 cycles
 SCF Done:  E(RB3LYP) =  -839.985855748     A.U. after    9 cycles
 SCF Done:  E(RB3LYP) =  -839.985859597     A.U. after    9 cycles
 SCF Done:  E(RB3LYP) =  -839.985863709     A.U. after    8 cycles
 SCF Done:  E(RB3LYP) =  -839.985866447     A.U. after    8 cycles
 SCF Done:  E(RB3LYP) =  -839.985867963     A.U. after    8 cycles
 SCF Done:  E(RB3LYP) =  -839.985869178     A.U. after    8 cycles
 SCF Done:  E(RB3LYP) =  -839.985869978     A.U. after    8 cycles
 SCF Done:  E(RB3LYP) =  -839.985870103     A.U. after    7 cycles
 Optimization completed.
    -- Stationary point found.
 Normal termination of Gaussian 09 at Sun Jan 15 13:53:22 2017.

 --------------------------------------------------------------------
 #N Geom=AllCheck Guess=TCheck SCRF=Check GenChk RB3LYP/6-31G(d) Freq
 --------------------------------------------------------------------

 Structure from the checkpoint file:  "/scratch/10462957.yak.local/Gau-20601.chk"
 ----------------------------------------------
 ./boats/2/glo_2w_beta_ts_boat2_B3LYP_631Gd.out
 ----------------------------------------------
 Charge =  0 Multiplicity = 1

                         Standard orientation:
 ---------------------------------------------------------------------
 Center     Atomic      Atomic             Coordinates (Angstroms)
 Number     Number       Type             X           Y           Z
 ---------------------------------------------------------------------
      1          6           0        1.239302    0.901352    1.441681
      2          8           0       -0.504506   -0.859180    0.942519
      3          1           0        1.098700   -3.283194   -1.189110
      4          1           0        3.160202   -0.742931   -0.992123
      5          8           0        3.480761   -1.387273   -0.332464
      6          1           0        2.035286   -2.338381   -0.345943
      7          8           0        1.080751   -2.572703   -0.531114
      8          1           0       -0.211364   -1.667135    0.472086
      9          6           0       -1.098653    0.563398   -1.022730
     10          6           0       -1.554400   -0.201089    0.251021
     11          1           0       -1.195741   -0.094225   -1.897383
     12          1           0       -1.914151    0.561346    0.955737
     13          8           0       -1.990092    1.645556   -1.271142
     14          1           0       -1.763033    2.330120   -0.616967
     15          6           0       -2.715460   -1.139898   -0.092895
     16          8           0       -3.259605   -1.818502    1.025257
     17          1           0       -2.353638   -1.928639   -0.765209
     18          1           0       -3.475476   -0.561441   -0.641174
     19          1           0       -3.563814   -1.150026    1.658752
     20          1           0        3.359965   -0.876955    0.492864
     21          6           0        0.888935    1.763798    0.225516
     22          1           0        1.820745    2.272240   -0.061670
     23          6           0        0.376345    1.041148   -1.055481
     24          1           0        0.388421    1.812931   -1.833731
     25          8           0       -0.127303    2.711673    0.575044
     26          1           0        0.248608    3.391505    1.154068
     27          8           0        1.279085    0.037175   -1.478374
     28          1           0        0.990676   -0.842030   -1.152005
     29          8           0        2.297388    0.317008    1.571722
     30          1           0        0.506363    0.954520    2.267554
 ---------------------------------------------------------------------

 SCF Done:  E(RB3LYP) =  -839.985870103     A.U. after    1 cycles

 The electronic state is 1-A.
 Alpha  occ. eigenvalues --  -19.18891 -19.16518 -19.16104 -19.15268 -19.14721
 Alpha  occ. eigenvalues --  -19.14594 -19.14352 -19.14226 -10.28921 -10.26294
 Alpha  occ. eigenvalues --  -10.25352 -10.24174 -10.23768 -10.22998  -1.06585
 Alpha  occ. eigenvalues --   -1.05182  -1.03771  -1.02559  -1.02049  -1.01400
 Alpha  occ. eigenvalues --   -1.00675  -1.00035  -0.77831  -0.75171  -0.69489
 Alpha  occ. eigenvalues --   -0.64835  -0.61969  -0.58762  -0.56653  -0.54456
 Alpha  occ. eigenvalues --   -0.52252  -0.52064  -0.51559  -0.48679  -0.48602
 Alpha  occ. eigenvalues --   -0.47102  -0.46163  -0.46025  -0.45267  -0.43102
 Alpha  occ. eigenvalues --   -0.41754  -0.41446  -0.39955  -0.39481  -0.38895
 Alpha  occ. eigenvalues --   -0.37436  -0.35841  -0.34116  -0.33503  -0.33099
 Alpha  occ. eigenvalues --   -0.32450  -0.31197  -0.30657  -0.30327  -0.28187
 Alpha  occ. eigenvalues --   -0.27274  -0.25679  -0.24617
 Alpha virt. eigenvalues --   -0.03638   0.03704   0.05191   0.07392   0.09819
 Alpha virt. eigenvalues --    0.10739   0.11316   0.12168   0.13208   0.14002
 Alpha virt. eigenvalues --    0.15482   0.15900   0.16759   0.17745   0.18465

 Mulliken charges:
               1
     1  C    0.270379
     2  O   -0.659771
     3  H    0.408209
     4  H    0.413011
     5  O   -0.820409
     6  H    0.436297
     7  O   -0.825919
     8  H    0.441533
     9  C    0.058255
    10  C    0.111060
    11  H    0.142875
    12  H    0.123316
    13  O   -0.646116
    14  H    0.415406
    15  C   -0.053001
    16  O   -0.609088
    17  H    0.137464
    18  H    0.145510
    19  H    0.388768
    20  H    0.434855
    21  C    0.046243
    22  H    0.156089
    23  C    0.124361
    24  H    0.158236
    25  O   -0.650216
    26  H    0.411643
    27  O   -0.688984
    28  H    0.426160
    29  O   -0.431518
    30  H    0.135353
 Sum of Mulliken charges =  -0.00000

 Dipole moment (field-independent basis, Debye):
    X=             -0.1336    Y=              2.8220    Z=              0.2538  Tot=              2.8366
 Quadrupole moment (field-independent basis, Debye-Ang):
   XX=            -94.7472   YY=            -72.6630   ZZ=            -84.0544
   XY=              1.3865   XZ=             -4.7112   YZ=             13.9058

  Exact polarizability: 104.572  -2.317  98.551   0.706   3.479  85.586
 Approx polarizability: 140.390 -11.268 135.136   1.652   4.425 123.470

                      1                      2                      3
                      A                      A                      A
 Frequencies --     44.9294                48.5083                61.0393
 Red. masses --      5.8437                 6.4975                 5.6630
 Frc consts  --      0.0070                 0.0090                 0.0124
 IR Inten    --      0.4975                 2.3174                 0.0432

                      4                      5                      6
                      A                      A                      A
 Frequencies --     82.6366                91.6723               121.4829
 Red. masses --      5.8590                 2.9813                 6.2533
 Frc consts  --      0.0236                 0.0148                 0.0544
 IR Inten    --      5.0583                 4.7499                 7.0367

                      7                      8                      9
                      A                      A                      A
 Frequencies --    134.2288               138.2655               178.0475
 Red. masses --      4.2260                 5.9895                 3.0501
 Frc consts  --      0.0449                 0.0675                 0.0570
 IR Inten    --     12.0676                 6.5994                12.8514

                     10                     11                     12
                      A                      A                      A
 Frequencies --    202.4943               217.2183               220.9662
 Red. masses --      5.3922                 3.2342                 3.6161
 Frc consts  --      0.1303                 0.0899                 0.1040
 IR Inten    --      6.5647                40.9127                15.8292

                     13                     14                     15
                      A                      A                      A
 Frequencies --    233.4809               246.5042               255.3761
 Red. masses --      1.1808                 1.3470                 1.4702
 Frc consts  --      0.0379                 0.0482                 0.0565
 IR Inten    --    130.0021                12.7819                99.1424

                     16                     17                     18
                      A                      A                      A
 Frequencies --    266.0580               270.9863               293.7457
 Red. masses --      2.1769                 2.5755                 5.8943
 Frc consts  --      0.0908                 0.1114                 0.2997
 IR Inten    --     44.6375                31.2409                26.5849

                     19                     20                     21
                      A                      A                      A
 Frequencies --    310.5376               326.4803               349.4729
 Red. masses --      4.4147                 3.4029                 5.8425
 Frc consts  --      0.2508                 0.2137                 0.4204
 IR Inten    --     19.0866                12.6742                24.3078

                     22                     23                     24
                      A                      A                      A
 Frequencies --    362.5587               395.5346               446.9125
 Red. masses --      4.6647                 3.4968                 1.1724
 Frc consts  --      0.3613                 0.3223                 0.1380
 IR Inten    --      3.6751                24.7031                25.8137

                     25                     26                     27
                      A                      A                      A
 Frequencies --    453.5194               480.8640               512.8487
 Red. masses --      3.0441                 3.4484                 3.4973
 Frc consts  --      0.3689                 0.4698                 0.5420
 IR Inten    --      7.9759                 6.7599                 2.7335

                     28                     29                     30
                      A                      A                      A
 Frequencies --    532.6660               556.7630               594.8504
 Red. masses --      1.2206                 4.4559                 3.1082
 Frc consts  --      0.2040                 0.8138                 0.6480
 IR Inten    --     92.2342                 3.3431                18.1222

                     31                     32                     33
                      A                      A                      A
 Frequencies --    604.6149               637.5144               704.7557
 Red. masses --      1.0684                 1.1204                 1.2527
 Frc consts  --      0.2301                 0.2683                 0.3666
 IR Inten    --     87.3791               170.8537               431.3721

                     34                     35                     36
                      A                      A                      A
 Frequencies --    709.9992               813.6991               817.6301
 Red. masses --      2.1920                 1.1900                 2.7138
 Frc consts  --      0.6510                 0.4642                 1.0689
 IR Inten    --     64.4505                94.6550                 0.7467

                     37                     38                     39
                      A                      A                      A
 Frequencies --    897.1848               955.0994               997.2899
 Red. masses --      2.3565                 2.4509                 2.0817
 Frc consts  --      1.1176                 1.3173                 1.2198
 IR Inten    --     16.1724                 5.0060                23.1349

                     40                     41                     42
                      A                      A                      A
 Frequencies --   1015.1263              1036.2973              1071.5156
 Red. masses --      1.2182                 1.8915                 3.7650
 Frc consts  --      0.7396                 1.1968                 2.5469
 IR Inten    --    109.8977               129.6496                16.8133

                     43                     44                     45
                      A                      A                      A
 Frequencies --   1077.6047              1084.9301              1113.6771
 Red. masses --      4.2727                 5.5109                 4.0178
 Frc consts  --      2.9233                 3.8219                 2.9360
 IR Inten    --     17.1437               177.8457                43.5207

                     46                     47                     48
                      A                      A                      A
 Frequencies --   1129.3317              1140.2819              1161.1594
 Red. masses --      3.5353                 2.4211                 3.7715
 Frc consts  --      2.6565                 1.8548                 2.9960
 IR Inten    --     55.4350                29.4047                45.0110

                     49                     50                     51
                      A                      A                      A
 Frequencies --   1194.6013              1235.4095              1265.2338
 Red. masses --      1.1576                 1.1654                 1.1605
 Frc consts  --      0.9733                 1.0480                 1.0945
 IR Inten    --     22.0722                 6.4527                77.6722

                     52                     53                     54
                      A                      A                      A
 Frequencies --   1298.8192              1330.0825              1348.0408
 Red. masses --      1.3864                 1.2212                 1.2457
 Frc consts  --      1.3780                 1.2729                 1.3338
 IR Inten    --      9.3731                11.4153                 4.4564

                     55                     56                     57
                      A                      A                      A
 Frequencies --   1360.9956              1384.9479              1387.4321
 Red. masses --      1.2876                 1.2828                 1.3503
 Frc consts  --      1.4052                 1.4497                 1.5314
 IR Inten    --      2.2072                14.4565                 8.5690

                     58                     59                     60
                      A                      A                      A
 Frequencies --   1401.1582              1426.5208              1439.2176
 Red. masses --      1.2457                 1.3041                 1.2952
 Frc consts  --      1.4409                 1.5636                 1.5807
 IR Inten    --      4.5740                 4.0318                38.1852

                     61                     62                     63
                      A                      A                      A
 Frequencies --   1444.2671              1448.0285              1466.7786
 Red. masses --      1.2906                 1.2208                 1.1989
 Frc consts  --      1.5861                 1.5081                 1.5198
 IR Inten    --     20.1077                25.6401                90.8905

                     64                     65                     66
                      A                      A                      A
 Frequencies --   1483.9564              1530.1228              1733.4907
 Red. masses --      1.1708                 1.0935                 1.0848
 Frc consts  --      1.5190                 1.5084                 1.9207
 IR Inten    --     69.2724                 3.3585               119.7992

                     67                     68                     69
                      A                      A                      A
 Frequencies --   1748.1164              1807.0799              2994.9202
 Red. masses --      1.1256                 6.7613                 1.0880
 Frc consts  --      2.0266                13.0087                 5.7495
 IR Inten    --    245.6929               111.5913                63.7527

                     70                     71                     72
                      A                      A                      A
 Frequencies --   3013.6429              3028.2513              3036.1724
 Red. masses --      1.0646                 1.0844                 1.0827
 Frc consts  --      5.6965                 5.8591                 5.8802
 IR Inten    --     36.6697                24.7930                 7.7295

                     73                     74                     75
                      A                      A                      A
 Frequencies --   3046.5312              3067.5807              3077.8719
 Red. masses --      1.0873                 1.0863                 1.0993
 Frc consts  --      5.9459                 6.0227                 6.1358
 IR Inten    --     37.8010                35.4005                56.6133

                     76                     77                     78
                      A                      A                      A
 Frequencies --   3228.3971              3532.7317              3597.5010
 Red. masses --      1.0649                 1.0687                 1.0668
 Frc consts  --      6.5391                 7.8580                 8.1344
 IR Inten    --    585.9940               211.6889               466.6675

                     79                     80                     81
                      A                      A                      A
 Frequencies --   3649.8424              3695.9462              3705.0442
 Red. masses --      1.0474                 1.0656                 1.0780
 Frc consts  --      8.2209                 8.5761                 8.7188
 IR Inten    --    250.3830                64.5684               119.2614

                     82                     83                     84
                      A                      A                      A
 Frequencies --   3740.5890              3761.0511              3805.0314
 Red. masses --      1.0660                 1.0670                 1.0668
 Frc consts  --      8.7882                 8.8929                 9.1004
 IR Inten    --     10.4496                32.1108                48.0033

 - Thermochemistry -
 -------------------
 Temperature   298.150 Kelvin.  Pressure   1.00000 Atm.
 Atom     1 has atomic number  6 and mass  12.00000

 Molecular mass:   216.08452 amu.
 Principal axes and moments of inertia in atomic units:
                           1         2         3
     Eigenvalues --  2554.859143609.587914607.66879
           X            0.99994  -0.00791  -0.00782
           Y            0.00811   0.99965   0.02507
           Z            0.00762  -0.02513   0.99966
 This molecule is an asymmetric top.
 Rotational symmetry number  1.
 Warning -- assumption of classical behavior for rotation
           may cause significant error
 Rotational temperatures (Kelvin)      0.03390     0.02400     0.01880
 Rotational constants (GHZ):           0.70640     0.49999     0.39168
 Zero-point vibrational energy     646663.9 (Joules/Mol)
                                  154.55638 (Kcal/Mol)
 Warning -- explicit consideration of  31 degrees of freedom as
           vibrations may cause significant error
 Vibrational temperatures:     64.64    69.79    87.82   118.90   131.90
          (Kelvin)            174.79   193.13   198.93   256.17   291.34
                              312.53   317.92   335.93   354.66   367.43
                              382.80   389.89   422.63   446.79   469.73
                              502.81   521.64   569.09   643.01   652.51
                              691.86   737.87   766.39   801.06   855.86
                              869.90   917.24  1013.98  1021.53  1170.73
                             1176.39  1290.85  1374.17  1434.88  1460.54
                             1491.00  1541.67  1550.43  1560.97  1602.33
                             1624.85  1640.61  1670.65  1718.76  1777.48
                             1820.39  1868.71  1913.69  1939.53  1958.17
                             1992.63  1996.20  2015.95  2052.44  2070.71
                             2077.98  2083.39  2110.36  2135.08  2201.50
                             2494.10  2515.15  2599.98  4309.02  4335.95
                             4356.97  4368.37  4383.27  4413.56  4428.37
                             4644.94  5082.81  5176.00  5251.30  5317.64
                             5330.73  5381.87  5411.31  5474.58

 Zero-point correction=                           0.246301 (Hartree/Particle)
 Thermal correction to Energy=                    0.264761
 Thermal correction to Enthalpy=                  0.265705
 Thermal correction to Gibbs Free Energy=         0.200814
 Sum of electronic and zero-point Energies=           -839.739569
 Sum of electronic and thermal Energies=              -839.721110
 Sum of electronic and thermal Enthalpies=            -839.720165
 Sum of electronic and thermal Free Energies=         -839.785056

                     E (Thermal)             CV                S
                      KCal/Mol        Cal/Mol-Kelvin    Cal/Mol-Kelvin
 Total                  166.140             66.699            136.574
 Electronic               0.000              0.000              0.000
 Translational            0.889              2.981             42.015
 Rotational               0.889              2.981             32.119
 Vibrational            164.362             60.738             62.440
 Vibration     1          0.595              1.979              5.029
 Vibration     2          0.595              1.978              4.877
 Vibration     3          0.597              1.973              4.423
 Vibration     4          0.600              1.961              3.827
 Vibration     5          0.602              1.955              3.624
 Vibration     6          0.609              1.931              3.077
 Vibration     7          0.613              1.919              2.885
 Vibration     8          0.614              1.915              2.828
 Vibration     9          0.628              1.869              2.349
 Vibration    10          0.639              1.836              2.110
 Vibration    11          0.646              1.815              1.982
 Vibration    12          0.648              1.809              1.951
 Vibration    13          0.654              1.790              1.852
 Vibration    14          0.661              1.769              1.755
 Vibration    15          0.666              1.754              1.693
 Vibration    16          0.672              1.735              1.622
 Vibration    17          0.675              1.727              1.590
 Vibration    18          0.689              1.685              1.452
 Vibration    19          0.699              1.654              1.359
 Vibration    20          0.710              1.623              1.277
 Vibration    21          0.727              1.576              1.169
 Vibration    22          0.736              1.549              1.111
 Vibration    23          0.762              1.480              0.979
 Vibration    24          0.806              1.368              0.805
 Vibration    25          0.812              1.353              0.785
 Vibration    26          0.837              1.292              0.708
 Vibration    27          0.868              1.222              0.627
 Vibration    28          0.888              1.178              0.581
 Vibration    29          0.912              1.125              0.530
 Vibration    30          0.953              1.043              0.459
 Vibration    31          0.963              1.022              0.442

 Normal termination of Gaussian 09 at Sun Jan 15 14:11:16 2017.
