 Gaussian 09, Revision E.01,
 Gaussian 09:  ES64L-G09RevE.01 30-Nov-2015

 -----------------------------------------
 # opt=(MaxCycle=1000) freq B3LYP/6-31G(d)
 -----------------------------------------

 -------------------------------------------------
 ./boats/2/glo_1w_alpha_ts_boat2_B3LYP_631Gd_r.out
 -------------------------------------------------
 Symbolic Z-matrix:
 Charge =  0 Multiplicity = 1

 SCF Done:  E(RB3LYP) =  -839.969133705     A.U. after   14 cycles
 SCF Done:  E(RB3LYP) =  -839.974446938     A.U. after   14 cycles
 SCF Done:  E(RB3LYP) =  -839.980103463     A.U. after   13 cycles
 SCF Done:  E(RB3LYP) =  -839.984169694     A.U. after   13 cycles
 SCF Done:  E(RB3LYP) =  -839.986057227     A.U. after   12 cycles
 SCF Done:  E(RB3LYP) =  -839.986806947     A.U. after   12 cycles
 SCF Done:  E(RB3LYP) =  -839.987080959     A.U. after   12 cycles
 SCF Done:  E(RB3LYP) =  -839.987353344     A.U. after   11 cycles
 SCF Done:  E(RB3LYP) =  -839.987405536     A.U. after   11 cycles
 SCF Done:  E(RB3LYP) =  -839.987440659     A.U. after   11 cycles
 SCF Done:  E(RB3LYP) =  -839.989796485     A.U. after    9 cycles
 SCF Done:  E(RB3LYP) =  -839.989799453     A.U. after    9 cycles
 SCF Done:  E(RB3LYP) =  -839.989801907     A.U. after    9 cycles
 SCF Done:  E(RB3LYP) =  -839.989802498     A.U. after    8 cycles
 SCF Done:  E(RB3LYP) =  -839.989803076     A.U. after    7 cycles
 SCF Done:  E(RB3LYP) =  -839.989803373     A.U. after    7 cycles
 SCF Done:  E(RB3LYP) =  -839.989803577     A.U. after    7 cycles
 SCF Done:  E(RB3LYP) =  -839.989803736     A.U. after    7 cycles
 SCF Done:  E(RB3LYP) =  -839.989803709     A.U. after    7 cycles
 Optimization completed.
    -- Stationary point found.
 Normal termination of Gaussian 09 at Sun Jan 15 14:47:40 2017.

 --------------------------------------------------------------------
 #N Geom=AllCheck Guess=TCheck SCRF=Check GenChk RB3LYP/6-31G(d) Freq
 --------------------------------------------------------------------

 Structure from the checkpoint file:  "/scratch/10462962.yak.local/Gau-15340.chk"
 -------------------------------------------------
 ./boats/2/glo_1w_alpha_ts_boat2_B3LYP_631Gd_r.out
 -------------------------------------------------
 Charge =  0 Multiplicity = 1

                         Standard orientation:
 ---------------------------------------------------------------------
 Center     Atomic      Atomic             Coordinates (Angstroms)
 Number     Number       Type             X           Y           Z
 ---------------------------------------------------------------------
      1          6           0       -1.712047   -1.608396   -0.726124
      2          8           0       -1.043570    1.142276   -0.884522
      3          1           0       -4.361856    1.197213    0.740676
      4          8           0       -3.532607    1.032943    0.267763
      5          1           0       -1.854659    1.518668   -0.495325
      6          6           0        0.969593    0.158271   -0.214537
      7          6           0        0.071829    1.394534   -0.034825
      8          1           0        1.049634   -0.030034   -1.289657
      9          1           0       -0.233775    1.485753    1.016492
     10          8           0        2.337186    0.441691    0.206165
     11          1           0        2.315851    0.558098    1.172575
     12          6           0        0.735841    2.711684   -0.476173
     13          8           0        1.788380    3.145139    0.371588
     14          1           0       -0.030287    3.493942   -0.450349
     15          1           0        1.063146    2.611383   -1.523032
     16          1           0        2.515802    2.523033    0.211770
     17          1           0       -1.114897   -2.127097   -1.497733
     18          8           0       -2.872709   -1.302707   -0.945159
     19          1           0       -3.644808    0.192508   -0.231117
     20          8           0        3.817853   -1.880381   -0.132026
     21          1           0        4.115957   -2.034113   -1.041624
     22          1           0        3.554844   -0.935800   -0.107087
     23          6           0        0.518494   -1.153989    0.477022
     24          1           0        0.857983   -1.086755    1.526843
     25          6           0       -1.000617   -1.457138    0.601911
     26          1           0       -0.994074   -2.496854    0.979910
     27          8           0       -1.629250   -0.650014    1.559728
     28          1           0       -2.264201   -0.037505    1.136489
     29          8           0        1.069061   -2.283545   -0.170361
     30          1           0        2.052033   -2.265469   -0.097886
 ---------------------------------------------------------------------

 SCF Done:  E(RB3LYP) =  -839.989803709     A.U. after    1 cycles

 The electronic state is 1-A.
 Alpha  occ. eigenvalues --  -19.19458 -19.17509 -19.16520 -19.15923 -19.14864
 Alpha  occ. eigenvalues --  -19.14252 -19.13853 -19.13555 -10.28889 -10.25310
 Alpha  occ. eigenvalues --  -10.24944 -10.24924 -10.24008 -10.22675  -1.06447
 Alpha  occ. eigenvalues --   -1.06092  -1.03317  -1.02303  -1.02177  -1.01664
 Alpha  occ. eigenvalues --   -1.00961  -1.00646  -0.78128  -0.74899  -0.69674
 Alpha  occ. eigenvalues --   -0.64329  -0.61281  -0.58507  -0.56677  -0.54403
 Alpha  occ. eigenvalues --   -0.54331  -0.52799  -0.51251  -0.49864  -0.48872
 Alpha  occ. eigenvalues --   -0.47333  -0.46575  -0.46193  -0.44132  -0.42784
 Alpha  occ. eigenvalues --   -0.41885  -0.40740  -0.39677  -0.39330  -0.38430
 Alpha  occ. eigenvalues --   -0.36843  -0.35989  -0.35068  -0.34788  -0.34170
 Alpha  occ. eigenvalues --   -0.33133  -0.31478  -0.30710  -0.29567  -0.27530
 Alpha  occ. eigenvalues --   -0.26866  -0.26121  -0.24692
 Alpha virt. eigenvalues --   -0.03291   0.03345   0.05119   0.07335   0.09013
 Alpha virt. eigenvalues --    0.10714   0.11815   0.12433   0.13412   0.14140
 Alpha virt. eigenvalues --    0.14972   0.16054   0.17553   0.17803   0.18668

 Mulliken charges:
               1
     1  C    0.268353
     2  O   -0.667823
     3  H    0.412400
     4  O   -0.809695
     5  H    0.436574
     6  C    0.101714
     7  C    0.073939
     8  H    0.162385
     9  H    0.140333
    10  O   -0.660757
    11  H    0.409148
    12  C   -0.042526
    13  O   -0.630857
    14  H    0.144809
    15  H    0.126251
    16  H    0.397982
    17  H    0.152159
    18  O   -0.449550
    19  H    0.441060
    20  O   -0.799291
    21  H    0.399597
    22  H    0.423399
    23  C    0.104488
    24  H    0.118027
    25  C    0.073524
    26  H    0.176215
    27  O   -0.672464
    28  H    0.422539
    29  O   -0.678996
    30  H    0.427060
 Sum of Mulliken charges =  -0.00000

 Dipole moment (field-independent basis, Debye):
    X=             -0.2618    Y=              0.3200    Z=             -0.3561  Tot=              0.5457
 Quadrupole moment (field-independent basis, Debye-Ang):
   XX=            -68.9712   YY=            -94.6889   ZZ=            -84.5659
   XY=             -5.6447   XZ=             -8.9178   YZ=              2.6142

  Exact polarizability: 113.918  -6.266  97.042   0.328   4.000  79.861
 Approx polarizability: 149.680 -11.074 125.606   4.279   9.051 123.566

                      1                      2                      3
                      A                      A                      A
 Frequencies --     35.1421                51.0655                69.7716
 Red. masses --      5.6128                 4.9050                 6.2253
 Frc consts  --      0.0041                 0.0075                 0.0179
 IR Inten    --      1.8465                 4.7926                 2.3832

                      4                      5                      6
                      A                      A                      A
 Frequencies --     93.1840               114.6129               125.3598
 Red. masses --      7.0287                 6.2517                 6.8454
 Frc consts  --      0.0360                 0.0484                 0.0634
 IR Inten    --      8.4575                 0.3266                 2.1994

                      7                      8                      9
                      A                      A                      A
 Frequencies --    139.4559               147.1805               158.3673
 Red. masses --      3.8522                 2.2422                 5.2299
 Frc consts  --      0.0441                 0.0286                 0.0773
 IR Inten    --      5.6499                67.0235                 4.4101

                     10                     11                     12
                      A                      A                      A
 Frequencies --    177.1246               185.1986               199.2890
 Red. masses --      1.8231                 4.8533                 5.9774
 Frc consts  --      0.0337                 0.0981                 0.1399
 IR Inten    --     15.0342                35.2784                 0.8036

                     13                     14                     15
                      A                      A                      A
 Frequencies --    221.7027               240.3904               257.8743
 Red. masses --      3.0011                 4.1325                 2.0531
 Frc consts  --      0.0869                 0.1407                 0.0804
 IR Inten    --     69.7959                 3.9637                32.0618

                     16                     17                     18
                      A                      A                      A
 Frequencies --    265.1106               275.6961               306.5272
 Red. masses --      1.8768                 2.8618                 2.0190
 Frc consts  --      0.0777                 0.1282                 0.1118
 IR Inten    --    136.6188               109.3162               100.5643

                     19                     20                     21
                      A                      A                      A
 Frequencies --    326.2445               351.3743               373.6584
 Red. masses --      3.2438                 2.7923                 3.4854
 Frc consts  --      0.2034                 0.2031                 0.2867
 IR Inten    --     15.9994                75.6243                68.5613

                     22                     23                     24
                      A                      A                      A
 Frequencies --    410.9697               413.5195               432.7907
 Red. masses --      1.7588                 2.0993                 2.1201
 Frc consts  --      0.1750                 0.2115                 0.2340
 IR Inten    --     84.1705                81.4114                34.7349

                     25                     26                     27
                      A                      A                      A
 Frequencies --    434.8845               452.3337               481.2173
 Red. masses --      1.5930                 1.3493                 2.9520
 Frc consts  --      0.1775                 0.1627                 0.4028
 IR Inten    --     18.8950               135.9460                17.2224

                     28                     29                     30
                      A                      A                      A
 Frequencies --    550.2323               558.8147               619.4781
 Red. masses --      4.0022                 3.4441                 2.3879
 Frc consts  --      0.7139                 0.6337                 0.5399
 IR Inten    --      6.3504                56.3341                25.8812

                     31                     32                     33
                      A                      A                      A
 Frequencies --    642.3317               669.1346               672.6923
 Red. masses --      1.1505                 1.1659                 1.1528
 Frc consts  --      0.2797                 0.3076                 0.3074
 IR Inten    --     51.0596                77.1477               216.4966

                     34                     35                     36
                      A                      A                      A
 Frequencies --    716.7478               770.8684               818.2070
 Red. masses --      2.4847                 1.1384                 2.9001
 Frc consts  --      0.7521                 0.3986                 1.1439
 IR Inten    --      7.6456               113.0011               128.1769

                     37                     38                     39
                      A                      A                      A
 Frequencies --    827.5567               886.4085               961.5546
 Red. masses --      1.1772                 1.7893                 2.0017
 Frc consts  --      0.4750                 0.8283                 1.0904
 IR Inten    --    133.5437                36.2273                 3.7475

                     40                     41                     42
                      A                      A                      A
 Frequencies --    996.1137              1049.4900              1058.9485
 Red. masses --      4.8910                 2.4763                 3.1989
 Frc consts  --      2.8594                 1.6070                 2.1135
 IR Inten    --     93.4779                18.3238                14.7611

                     43                     44                     45
                      A                      A                      A
 Frequencies --   1089.1273              1092.0110              1106.7977
 Red. masses --      6.5238                 3.4061                 2.5962
 Frc consts  --      4.5594                 2.3931                 1.8738
 IR Inten    --    123.6274                41.6265                21.7457

                     46                     47                     48
                      A                      A                      A
 Frequencies --   1117.1745              1141.5657              1181.9184
 Red. masses --      3.8581                 2.7190                 2.8287
 Frc consts  --      2.8370                 2.0877                 2.3281
 IR Inten    --     24.2889                 2.6671                90.0889

                     49                     50                     51
                      A                      A                      A
 Frequencies --   1212.2227              1222.5226              1267.2015
 Red. masses --      1.2041                 1.1463                 1.2035
 Frc consts  --      1.0425                 1.0094                 1.1387
 IR Inten    --     31.4608                 7.7822                36.4802

                     52                     53                     54
                      A                      A                      A
 Frequencies --   1281.3091              1322.3965              1330.9305
 Red. masses --      1.1994                 1.1881                 1.2754
 Frc consts  --      1.1602                 1.2242                 1.3311
 IR Inten    --      9.3661                 1.2290                21.9829

                     55                     56                     57
                      A                      A                      A
 Frequencies --   1354.5594              1379.5815              1407.8012
 Red. masses --      1.4498                 1.3166                 1.3014
 Frc consts  --      1.5673                 1.4764                 1.5196
 IR Inten    --     46.3538                18.9893                 8.0072

                     58                     59                     60
                      A                      A                      A
 Frequencies --   1415.2973              1423.0601              1429.8814
 Red. masses --      1.2087                 1.2295                 1.2510
 Frc consts  --      1.4265                 1.4670                 1.5069
 IR Inten    --     14.5246                11.1368                29.7051

                     61                     62                     63
                      A                      A                      A
 Frequencies --   1443.3245              1459.3453              1467.1192
 Red. masses --      1.3150                 1.3134                 1.3425
 Frc consts  --      1.6140                 1.6480                 1.7025
 IR Inten    --     38.5727                79.1345                24.6156

                     64                     65                     66
                      A                      A                      A
 Frequencies --   1493.2212              1527.7267              1689.7691
 Red. masses --      1.2661                 1.0896                 1.1047
 Frc consts  --      1.6633                 1.4983                 1.8584
 IR Inten    --     44.9348                 0.6518               152.5743

                     67                     68                     69
                      A                      A                      A
 Frequencies --   1723.4330              1795.0731              2951.8752
 Red. masses --      1.0750                 7.9772                 1.0818
 Frc consts  --      1.8813                15.1448                 5.5538
 IR Inten    --     53.4492               160.2505                49.8090

                     70                     71                     72
                      A                      A                      A
 Frequencies --   2963.0427              3010.6409              3013.9896
 Red. masses --      1.0813                 1.0692                 1.0875
 Frc consts  --      5.5933                 5.7098                 5.8204
 IR Inten    --     20.0721                38.5737                52.3951

                     73                     74                     75
                      A                      A                      A
 Frequencies --   3047.0912              3099.4673              3102.5834
 Red. masses --      1.0839                 1.0958                 1.0879
 Frc consts  --      5.9295                 6.2024                 6.1701
 IR Inten    --     25.1950                31.3878                25.9639

                     76                     77                     78
                      A                      A                      A
 Frequencies --   3451.6831              3507.9343              3578.9319
 Red. masses --      1.0679                 1.0607                 1.0563
 Frc consts  --      7.4960                 7.6905                 7.9713
 IR Inten    --    479.3986               146.2463               546.7686

                     79                     80                     81
                      A                      A                      A
 Frequencies --   3598.4852              3668.9059              3700.7478
 Red. masses --      1.0660                 1.0669                 1.0656
 Frc consts  --      8.1329                 8.4611                 8.5988
 IR Inten    --    299.0543               443.8721                25.6743

                     82                     83                     84
                      A                      A                      A
 Frequencies --   3739.1394              3799.0474              3809.9022
 Red. masses --      1.0649                 1.0716                 1.0708
 Frc consts  --      8.7724                 9.1126                 9.1573
 IR Inten    --     44.4094                78.0449                76.5758

 - Thermochemistry -
 -------------------
 Temperature   298.150 Kelvin.  Pressure   1.00000 Atm.
 Atom     1 has atomic number  6 and mass  12.00000

 Molecular mass:   216.08452 amu.
 Principal axes and moments of inertia in atomic units:
                           1         2         3
     Eigenvalues --  2549.693123731.991935548.42400
           X            0.99941  -0.03342  -0.00807
           Y            0.03340   0.99944  -0.00224
           Z            0.00814   0.00197   0.99996
 This molecule is an asymmetric top.
 Rotational symmetry number  1.
 Warning -- assumption of classical behavior for rotation
           may cause significant error
 Rotational temperatures (Kelvin)      0.03397     0.02321     0.01561
 Rotational constants (GHZ):           0.70783     0.48359     0.32527
 Zero-point vibrational energy     645723.0 (Joules/Mol)
                                  154.33151 (Kcal/Mol)
 Warning -- explicit consideration of  30 degrees of freedom as
           vibrations may cause significant error
 Vibrational temperatures:     50.56    73.47   100.39   134.07   164.90
          (Kelvin)            180.36   200.65   211.76   227.85   254.84
                              266.46   286.73   318.98   345.87   371.02
                              381.43   396.66   441.02   469.39   505.55
                              537.61   591.29   594.96   622.69   625.70
                              650.81   692.36   791.66   804.01   891.29
                              924.17   962.73   967.85  1031.24  1109.11
                             1177.22  1190.67  1275.34  1383.46  1433.18
                             1509.98  1523.59  1567.01  1571.16  1592.43
                             1607.36  1642.46  1700.51  1744.12  1758.94
                             1823.22  1843.52  1902.63  1914.91  1948.91
                             1984.91  2025.51  2036.29  2047.46  2057.28
                             2076.62  2099.67  2110.85  2148.41  2198.06
                             2431.20  2479.63  2582.71  4247.08  4263.15
                             4331.64  4336.45  4384.08  4459.44  4463.92
                             4966.20  5047.13  5149.28  5177.41  5278.73
                             5324.54  5379.78  5465.98  5481.59

 Zero-point correction=                           0.245943 (Hartree/Particle)
 Thermal correction to Energy=                    0.264398
 Thermal correction to Enthalpy=                  0.265342
 Thermal correction to Gibbs Free Energy=         0.200414
 Sum of electronic and zero-point Energies=           -839.743861
 Sum of electronic and thermal Energies=              -839.725406
 Sum of electronic and thermal Enthalpies=            -839.724462
 Sum of electronic and thermal Free Energies=         -839.789390

                     E (Thermal)             CV                S
                      KCal/Mol        Cal/Mol-Kelvin    Cal/Mol-Kelvin
 Total                  165.912             66.850            136.652
 Electronic               0.000              0.000              0.000
 Translational            0.889              2.981             42.015
 Rotational               0.889              2.981             32.335
 Vibrational            164.135             60.888             62.303
 Vibration     1          0.594              1.982              5.516
 Vibration     2          0.595              1.977              4.776
 Vibration     3          0.598              1.969              4.160
 Vibration     4          0.602              1.954              3.592
 Vibration     5          0.608              1.937              3.189
 Vibration     6          0.610              1.928              3.016
 Vibration     7          0.615              1.914              2.811
 Vibration     8          0.617              1.906              2.708
 Vibration     9          0.621              1.893              2.569
 Vibration    10          0.628              1.871              2.359
 Vibration    11          0.631              1.860              2.275
 Vibration    12          0.637              1.841              2.140
 Vibration    13          0.648              1.808              1.945
 Vibration    14          0.657              1.779              1.800
 Vibration    15          0.667              1.749              1.676
 Vibration    16          0.671              1.737              1.628
 Vibration    17          0.677              1.718              1.560
 Vibration    18          0.697              1.661              1.381
 Vibration    19          0.710              1.623              1.279
 Vibration    20          0.728              1.572              1.160
 Vibration    21          0.745              1.526              1.065
 Vibration    22          0.775              1.446              0.923
 Vibration    23          0.777              1.441              0.914
 Vibration    24          0.794              1.399              0.850
 Vibration    25          0.795              1.394              0.843
 Vibration    26          0.811              1.356              0.789
 Vibration    27          0.838              1.292              0.707
 Vibration    28          0.906              1.139              0.544
 Vibration    29          0.914              1.120              0.526
 Vibration    30          0.979              0.991              0.417

 Normal termination of Gaussian 09 at Sun Jan 15 15:05:02 2017.
