 Gaussian 09, Revision E.01,
 Gaussian 09:  ES64L-G09RevE.01 30-Nov-2015

 -----------------------------------------
 # opt=(MaxCycle=1000) freq B3LYP/6-31G(d)
 -----------------------------------------

 ------------------------------------------------
 ./boats/2/glo_2w_beta_ts_boat2_B3LYP_631Gd_r.out
 ------------------------------------------------
 Symbolic Z-matrix:
 Charge =  0 Multiplicity = 1

 SCF Done:  E(RB3LYP) =  -839.973120080     A.U. after   14 cycles
 SCF Done:  E(RB3LYP) =  -839.708965125     A.U. after   14 cycles
 SCF Done:  E(RB3LYP) =  -839.978503963     A.U. after   12 cycles
 SCF Done:  E(RB3LYP) =  -839.983060479     A.U. after   11 cycles
 SCF Done:  E(RB3LYP) =  -839.986801027     A.U. after   11 cycles
 SCF Done:  E(RB3LYP) =  -839.984310197     A.U. after   12 cycles
 SCF Done:  E(RB3LYP) =  -839.989399112     A.U. after   10 cycles
 SCF Done:  E(RB3LYP) =  -839.991386257     A.U. after   11 cycles
 SCF Done:  E(RB3LYP) =  -839.994168345     A.U. after   11 cycles
 SCF Done:  E(RB3LYP) =  -839.992709153     A.U. after   12 cycles
 SCF Done:  E(RB3LYP) =  -840.001163654     A.U. after    7 cycles
 SCF Done:  E(RB3LYP) =  -840.001164026     A.U. after    7 cycles
 SCF Done:  E(RB3LYP) =  -840.001164165     A.U. after    7 cycles
 SCF Done:  E(RB3LYP) =  -840.001164310     A.U. after    7 cycles
 SCF Done:  E(RB3LYP) =  -840.001164598     A.U. after    7 cycles
 SCF Done:  E(RB3LYP) =  -840.001165104     A.U. after    7 cycles
 SCF Done:  E(RB3LYP) =  -840.001165807     A.U. after    7 cycles
 SCF Done:  E(RB3LYP) =  -840.001166609     A.U. after    7 cycles
 SCF Done:  E(RB3LYP) =  -840.001167276     A.U. after    7 cycles
 Optimization completed.
    -- Stationary point found.
 Normal termination of Gaussian 09 at Sun Jan 15 13:59:42 2017.

 --------------------------------------------------------------------
 #N Geom=AllCheck Guess=TCheck SCRF=Check GenChk RB3LYP/6-31G(d) Freq
 --------------------------------------------------------------------

 Structure from the checkpoint file:  "/scratch/10462960.yak.local/Gau-14888.chk"
 ------------------------------------------------
 ./boats/2/glo_2w_beta_ts_boat2_B3LYP_631Gd_r.out
 ------------------------------------------------
 Charge =  0 Multiplicity = 1

                         Standard orientation:
 ---------------------------------------------------------------------
 Center     Atomic      Atomic             Coordinates (Angstroms)
 Number     Number       Type             X           Y           Z
 ---------------------------------------------------------------------
      1          6           0        0.518664   -0.709269    1.262570
      2          8           0       -0.544416    0.164877    0.806449
      3          1           0       -3.492598   -0.356263   -0.737801
      4          1           0       -0.496011   -2.609141   -1.276794
      5          8           0       -1.009671   -3.056120   -0.577806
      6          1           0       -1.856802   -2.565275   -0.599828
      7          8           0       -2.646532   -0.807856   -0.599785
      8          1           0       -2.260851   -0.391059    0.198251
      9          6           0        0.947608    1.397522   -0.752430
     10          6           0       -0.129767    1.464178    0.376998
     11          1           0        0.581489    1.922852   -1.642025
     12          1           0        0.314078    1.998603    1.233173
     13          8           0        2.153282    2.048769   -0.389736
     14          1           0        2.617164    1.445423    0.222671
     15          6           0       -1.387697    2.195922   -0.107370
     16          8           0       -2.524449    2.008066    0.721795
     17          1           0       -1.683558    1.809056   -1.087659
     18          1           0       -1.138549    3.260948   -0.233926
     19          1           0       -2.274652    2.217046    1.635908
     20          1           0       -0.368483   -2.399290    0.934432
     21          6           0        1.557681   -0.895826    0.121771
     22          1           0        1.614378   -1.960432   -0.133211
     23          6           0        1.191093   -0.079506   -1.136222
     24          1           0        2.038227   -0.104339   -1.831604
     25          8           0        2.819478   -0.453919    0.659915
     26          1           0        3.523817   -0.749151    0.060390
     27          8           0        0.098631   -0.661518   -1.843815
     28          1           0       -0.737093   -0.485545   -1.367960
     29          8           0       -0.044379   -1.873434    1.713341
     30          1           0        1.018391   -0.222480    2.111232
 ---------------------------------------------------------------------

 SCF Done:  E(RB3LYP) =  -840.001167276     A.U. after    1 cycles

 The electronic state is 1-A.
 Alpha  occ. eigenvalues --  -19.18354 -19.17147 -19.16692 -19.16451 -19.16139
 Alpha  occ. eigenvalues --  -19.14492 -19.14296 -19.13887 -10.29262 -10.25348
 Alpha  occ. eigenvalues --  -10.25335 -10.25203 -10.25076 -10.24850  -1.07987
 Alpha  occ. eigenvalues --   -1.05081  -1.03772  -1.03340  -1.02216  -1.01878
 Alpha  occ. eigenvalues --   -1.00731  -0.99450  -0.78426  -0.77291  -0.69843
 Alpha  occ. eigenvalues --   -0.65787  -0.64179  -0.59645  -0.55801  -0.54939
 Alpha  occ. eigenvalues --   -0.54458  -0.53044  -0.51669  -0.51460  -0.50947
 Alpha  occ. eigenvalues --   -0.47752  -0.45963  -0.45597  -0.44961  -0.43301
 Alpha  occ. eigenvalues --   -0.42264  -0.40681  -0.40315  -0.39800  -0.38361
 Alpha  occ. eigenvalues --   -0.37556  -0.36755  -0.35097  -0.34781  -0.33443
 Alpha  occ. eigenvalues --   -0.32364  -0.31780  -0.30534  -0.29691  -0.29314
 Alpha  occ. eigenvalues --   -0.28207  -0.26341  -0.25697
 Alpha virt. eigenvalues --    0.03485   0.04668   0.06945   0.08221   0.10627
 Alpha virt. eigenvalues --    0.10707   0.11076   0.11845   0.12926   0.14639
 Alpha virt. eigenvalues --    0.15048   0.15433   0.16623   0.17122   0.19170

 Mulliken charges:
               1
     1  C    0.356607
     2  O   -0.540474
     3  H    0.412162
     4  H    0.410062
     5  O   -0.828211
     6  H    0.430497
     7  O   -0.823048
     8  H    0.448193
     9  C    0.077546
    10  C    0.096680
    11  H    0.152706
    12  H    0.135341
    13  O   -0.650502
    14  H    0.410096
    15  C   -0.069039
    16  O   -0.621114
    17  H    0.154998
    18  H    0.149379
    19  H    0.400500
    20  H    0.435659
    21  C    0.027585
    22  H    0.156470
    23  C    0.098835
    24  H    0.141042
    25  O   -0.636375
    26  H    0.408408
    27  O   -0.673136
    28  H    0.435094
    29  O   -0.644731
    30  H    0.148769
 Sum of Mulliken charges =   0.00000

 Dipole moment (field-independent basis, Debye):
    X=              0.2147    Y=              2.2708    Z=             -0.5524  Tot=              2.3468
 Quadrupole moment (field-independent basis, Debye-Ang):
   XX=            -73.5797   YY=            -93.5994   ZZ=            -87.0357
   XY=             -8.4560   XZ=             -1.3632   YZ=              6.6430

  Exact polarizability: 101.331  -0.396  96.905   0.738   0.184  83.513
 Approx polarizability: 136.478   4.473 129.951   3.334   0.761 123.892

                      1                      2                      3
                      A                      A                      A
 Frequencies --     39.8622                64.6868                76.7382
 Red. masses --      6.5222                 4.5330                 6.0281
 Frc consts  --      0.0061                 0.0112                 0.0209
 IR Inten    --      3.0775                 5.5390                 2.2166

                      4                      5                      6
                      A                      A                      A
 Frequencies --    105.9168               125.4247               133.5639
 Red. masses --      5.5570                 3.2380                 4.9088
 Frc consts  --      0.0367                 0.0300                 0.0516
 IR Inten    --      6.5164                 2.9091                 2.3867

                      7                      8                      9
                      A                      A                      A
 Frequencies --    165.0061               195.1684               224.4711
 Red. masses --      3.5723                 3.0794                 4.9856
 Frc consts  --      0.0573                 0.0691                 0.1480
 IR Inten    --      9.5485                10.0810                 5.3591

                     10                     11                     12
                      A                      A                      A
 Frequencies --    226.2136               240.8755               255.3832
 Red. masses --      5.0973                 3.4118                 4.3457
 Frc consts  --      0.1537                 0.1166                 0.1670
 IR Inten    --      5.9429                12.0555                13.2961

                     13                     14                     15
                      A                      A                      A
 Frequencies --    264.6255               274.7968               285.0521
 Red. masses --      1.5961                 5.7479                 1.6653
 Frc consts  --      0.0659                 0.2557                 0.0797
 IR Inten    --     73.4115                 5.5134                72.0998

                     16                     17                     18
                      A                      A                      A
 Frequencies --    299.7899               332.9452               344.3264
 Red. masses --      3.1590                 1.2164                 1.3789
 Frc consts  --      0.1673                 0.0794                 0.0963
 IR Inten    --     36.0315                76.4582               106.9814

                     19                     20                     21
                      A                      A                      A
 Frequencies --    359.9242               397.8555               418.2949
 Red. masses --      4.6414                 3.1870                 3.7222
 Frc consts  --      0.3543                 0.2972                 0.3837
 IR Inten    --     37.5853                 2.6568                29.2627

                     22                     23                     24
                      A                      A                      A
 Frequencies --    433.6435               443.0931               493.7029
 Red. masses --      1.0987                 6.0035                 3.3649
 Frc consts  --      0.1217                 0.6945                 0.4832
 IR Inten    --     80.1396                 6.7537                24.0178

                     25                     26                     27
                      A                      A                      A
 Frequencies --    501.4138               543.1989               561.9926
 Red. masses --      6.3831                 4.1024                 1.2036
 Frc consts  --      0.9455                 0.7132                 0.2240
 IR Inten    --      3.8225                 8.2599                51.3259

                     28                     29                     30
                      A                      A                      A
 Frequencies --    576.2657               629.9328               653.8030
 Red. masses --      4.7883                 2.8878                 1.1120
 Frc consts  --      0.9369                 0.6752                 0.2800
 IR Inten    --      5.8332                23.3864                93.8535

                     31                     32                     33
                      A                      A                      A
 Frequencies --    663.9164               732.8899               780.7850
 Red. masses --      1.1335                 1.0676                 1.1421
 Frc consts  --      0.2944                 0.3378                 0.4102
 IR Inten    --    296.5541                93.2982               289.4076

                     34                     35                     36
                      A                      A                      A
 Frequencies --    815.5630               863.1067               905.9213
 Red. masses --      3.2012                 3.6665                 2.2982
 Frc consts  --      1.2545                 1.6093                 1.1113
 IR Inten    --     39.8922                 7.7732                 2.6927

                     37                     38                     39
                      A                      A                      A
 Frequencies --    944.9890               959.3027               995.4835
 Red. masses --      3.1493                 1.1031                 3.4160
 Frc consts  --      1.6570                 0.5981                 1.9945
 IR Inten    --     64.3000               152.2942                88.8146

                     40                     41                     42
                      A                      A                      A
 Frequencies --   1035.7358              1044.9859              1061.7282
 Red. masses --      3.7790                 2.4927                 5.1804
 Frc consts  --      2.3885                 1.6038                 3.4406
 IR Inten    --    117.0943                60.2074                61.9508

                     43                     44                     45
                      A                      A                      A
 Frequencies --   1087.5102              1096.2505              1115.1096
 Red. masses --      5.9182                 3.7018                 3.2014
 Frc consts  --      4.1239                 2.6211                 2.3455
 IR Inten    --    126.4024                78.9492                19.6451

                     46                     47                     48
                      A                      A                      A
 Frequencies --   1119.8502              1133.8507              1196.9594
 Red. masses --      2.1218                 3.5968                 2.0404
 Frc consts  --      1.5678                 2.7245                 1.7224
 IR Inten    --      6.3180                17.0700               126.5265

                     49                     50                     51
                      A                      A                      A
 Frequencies --   1233.2101              1240.2404              1250.9902
 Red. masses --      1.2853                 1.4730                 1.4398
 Frc consts  --      1.1517                 1.3350                 1.3276
 IR Inten    --     19.9115                58.2773                51.4255

                     52                     53                     54
                      A                      A                      A
 Frequencies --   1273.6222              1310.0260              1338.0730
 Red. masses --      1.1971                 1.2134                 1.2993
 Frc consts  --      1.1441                 1.2270                 1.3706
 IR Inten    --     68.7599                 9.2095                 1.9090

                     55                     56                     57
                      A                      A                      A
 Frequencies --   1353.2236              1357.4342              1378.3810
 Red. masses --      1.2333                 1.3063                 1.2830
 Frc consts  --      1.3306                 1.4181                 1.4362
 IR Inten    --      4.4647                11.6217                12.1542

                     58                     59                     60
                      A                      A                      A
 Frequencies --   1380.8287              1401.6661              1422.1333
 Red. masses --      1.3438                 1.3543                 1.3197
 Frc consts  --      1.5096                 1.5676                 1.5725
 IR Inten    --     15.1337                 6.7080                59.2672

                     61                     62                     63
                      A                      A                      A
 Frequencies --   1427.1288              1451.1041              1462.6486
 Red. masses --      1.3773                 1.2590                 1.4404
 Frc consts  --      1.6528                 1.5619                 1.8156
 IR Inten    --      4.2163                48.9247                15.1765

                     64                     65                     66
                      A                      A                      A
 Frequencies --   1492.2193              1531.6304              1534.0928
 Red. masses --      1.1946                 1.1531                 1.0848
 Frc consts  --      1.5673                 1.5938                 1.5041
 IR Inten    --     72.3131                98.0013                 3.6728

                     67                     68                     69
                      A                      A                      A
 Frequencies --   1676.3076              1773.4313              2994.6355
 Red. masses --      1.0852                 1.0747                 1.0842
 Frc consts  --      1.7967                 1.9915                 5.7284
 IR Inten    --     68.9854               126.4837                28.7699

                     70                     71                     72
                      A                      A                      A
 Frequencies --   3020.4622              3045.6020              3066.6133
 Red. masses --      1.0695                 1.0867                 1.0863
 Frc consts  --      5.7486                 5.9391                 6.0188
 IR Inten    --     46.4351                50.5342                33.2645

                     73                     74                     75
                      A                      A                      A
 Frequencies --   3070.0041              3077.0305              3105.0425
 Red. masses --      1.0859                 1.0884                 1.0956
 Frc consts  --      6.0302                 6.0717                 6.2233
 IR Inten    --     42.1937                30.1377                26.2613

                     76                     77                     78
                      A                      A                      A
 Frequencies --   3316.9730              3599.3044              3614.7153
 Red. masses --      1.0684                 1.0565                 1.0587
 Frc consts  --      6.9261                 8.0644                 8.1499
 IR Inten    --    521.0199               209.0222                53.6435

                     79                     80                     81
                      A                      A                      A
 Frequencies --   3626.6911              3639.7222              3701.2540
 Red. masses --      1.0658                 1.0581                 1.0764
 Frc consts  --      8.2593                 8.2585                 8.6879
 IR Inten    --    133.0236               238.9009               253.6989

                     82                     83                     84
                      A                      A                      A
 Frequencies --   3739.0306              3740.0767              3810.4482
 Red. masses --      1.0662                 1.0661                 1.0720
 Frc consts  --      8.7827                 8.7865                 9.1702
 IR Inten    --     26.3069                18.4214                88.5109

 - Thermochemistry -
 -------------------
 Temperature   298.150 Kelvin.  Pressure   1.00000 Atm.
 Atom     1 has atomic number  6 and mass  12.00000

 Molecular mass:   216.08452 amu.
 Principal axes and moments of inertia in atomic units:
                           1         2         3
     Eigenvalues --  2640.756092801.527733975.20885
           X            0.99765  -0.06844   0.00357
           Y            0.06839   0.99759   0.01184
           Z           -0.00437  -0.01157   0.99992
 This molecule is an asymmetric top.
 Rotational symmetry number  1.
 Warning -- assumption of classical behavior for rotation
           may cause significant error
 Rotational temperatures (Kelvin)      0.03280     0.03092     0.02179
 Rotational constants (GHZ):           0.68342     0.64420     0.45400
 Zero-point vibrational energy     656019.5 (Joules/Mol)
                                  156.79243 (Kcal/Mol)
 Warning -- explicit consideration of  28 degrees of freedom as
           vibrations may cause significant error
 Vibrational temperatures:     57.35    93.07   110.41   152.39   180.46
          (Kelvin)            192.17   237.41   280.80   322.96   325.47
                              346.57   367.44   380.74   395.37   410.13
                              431.33   479.03   495.41   517.85   572.42
                              601.83   623.92   637.51   710.33   721.42
                              781.54   808.58   829.12   906.33   940.68
                              955.23  1054.46  1123.37  1173.41  1241.82
                             1303.42  1359.63  1380.22  1432.28  1490.19
                             1503.50  1527.59  1564.68  1577.26  1604.39
                             1611.21  1631.36  1722.16  1774.31  1784.43
                             1799.89  1832.46  1884.83  1925.19  1946.98
                             1953.04  1983.18  1986.70  2016.68  2046.13
                             2053.32  2087.81  2104.42  2146.97  2203.67
                             2207.21  2411.83  2551.57  4308.61  4345.77
                             4381.94  4412.17  4417.05  4427.16  4467.46
                             4772.38  5178.59  5200.76  5217.99  5236.74
                             5325.27  5379.62  5381.13  5482.38

 Zero-point correction=                           0.249865 (Hartree/Particle)
 Thermal correction to Energy=                    0.266752
 Thermal correction to Enthalpy=                  0.267696
 Thermal correction to Gibbs Free Energy=         0.206853
 Sum of electronic and zero-point Energies=           -839.751303
 Sum of electronic and thermal Energies=              -839.734415
 Sum of electronic and thermal Enthalpies=            -839.733471
 Sum of electronic and thermal Free Energies=         -839.794314

                     E (Thermal)             CV                S
                      KCal/Mol        Cal/Mol-Kelvin    Cal/Mol-Kelvin
 Total                  167.389             63.569            128.055
 Electronic               0.000              0.000              0.000
 Translational            0.889              2.981             42.015
 Rotational               0.889              2.981             31.753
 Vibrational            165.612             57.607             54.287
 Vibration     1          0.594              1.981              5.266
 Vibration     2          0.597              1.971              4.309
 Vibration     3          0.599              1.965              3.973
 Vibration     4          0.605              1.945              3.342
 Vibration     5          0.610              1.928              3.015
 Vibration     6          0.613              1.920              2.894
 Vibration     7          0.623              1.885              2.492
 Vibration     8          0.636              1.847              2.178
 Vibration     9          0.649              1.804              1.923
 Vibration    10          0.650              1.801              1.909
 Vibration    11          0.658              1.778              1.796
 Vibration    12          0.666              1.754              1.693
 Vibration    13          0.671              1.738              1.631
 Vibration    14          0.677              1.720              1.566
 Vibration    15          0.683              1.701              1.503
 Vibration    16          0.692              1.674              1.418
 Vibration    17          0.715              1.610              1.246
 Vibration    18          0.723              1.587              1.192
 Vibration    19          0.734              1.555              1.122
 Vibration    20          0.764              1.475              0.971
 Vibration    21          0.781              1.430              0.898
 Vibration    22          0.794              1.397              0.847
 Vibration    23          0.803              1.376              0.817
 Vibration    24          0.849              1.264              0.674
 Vibration    25          0.857              1.247              0.655
 Vibration    26          0.898              1.155              0.558
 Vibration    27          0.918              1.114              0.520
 Vibration    28          0.933              1.083              0.492

 Normal termination of Gaussian 09 at Sun Jan 15 14:20:36 2017.
