 Gaussian 09, Revision E.01,
 Gaussian 09:  ES64L-G09RevE.01 30-Nov-2015

 -----------------------------------------
 # opt=(MaxCycle=1000) freq B3LYP/6-31G(d)
 -----------------------------------------

 -----------------------------------------------
 ./boats/2/glo_1w_alpha_ts_boat2_B3LYP_631Gd.out
 -----------------------------------------------
 Symbolic Z-matrix:
 Charge =  0 Multiplicity = 1

 SCF Done:  E(RB3LYP) =  -839.980238675     A.U. after   14 cycles
 SCF Done:  E(RB3LYP) =  -839.988435381     A.U. after   11 cycles
 SCF Done:  E(RB3LYP) =  -839.994715586     A.U. after   12 cycles
 SCF Done:  E(RB3LYP) =  -839.997246736     A.U. after   11 cycles
 SCF Done:  E(RB3LYP) =  -839.998151507     A.U. after   12 cycles
 SCF Done:  E(RB3LYP) =  -839.998536605     A.U. after   11 cycles
 SCF Done:  E(RB3LYP) =  -839.999020889     A.U. after   11 cycles
 SCF Done:  E(RB3LYP) =  -839.999262694     A.U. after   11 cycles
 SCF Done:  E(RB3LYP) =  -839.999338743     A.U. after   10 cycles
 SCF Done:  E(RB3LYP) =  -839.999387572     A.U. after   10 cycles
 SCF Done:  E(RB3LYP) =  -839.999499435     A.U. after    7 cycles
 SCF Done:  E(RB3LYP) =  -839.999501627     A.U. after    7 cycles
 SCF Done:  E(RB3LYP) =  -839.999503371     A.U. after    7 cycles
 SCF Done:  E(RB3LYP) =  -839.999504998     A.U. after    7 cycles
 SCF Done:  E(RB3LYP) =  -839.999506405     A.U. after    7 cycles
 SCF Done:  E(RB3LYP) =  -839.999507156     A.U. after    7 cycles
 SCF Done:  E(RB3LYP) =  -839.999507659     A.U. after    7 cycles
 SCF Done:  E(RB3LYP) =  -839.999508130     A.U. after    7 cycles
 SCF Done:  E(RB3LYP) =  -839.999508423     A.U. after    7 cycles
 Optimization completed.
    -- Stationary point found.
 Normal termination of Gaussian 09 at Sun Jan 15 12:59:34 2017.

 --------------------------------------------------------------------
 #N Geom=AllCheck Guess=TCheck SCRF=Check GenChk RB3LYP/6-31G(d) Freq
 --------------------------------------------------------------------

 Structure from the checkpoint file:  "/scratch/10462961.yak.local/Gau-18406.chk"
 -----------------------------------------------
 ./boats/2/glo_1w_alpha_ts_boat2_B3LYP_631Gd.out
 -----------------------------------------------
 Charge =  0 Multiplicity = 1

                         Standard orientation:
 ---------------------------------------------------------------------
 Center     Atomic      Atomic             Coordinates (Angstroms)
 Number     Number       Type             X           Y           Z
 ---------------------------------------------------------------------
      1          6           0       -1.430338   -1.109846   -0.258445
      2          8           0       -1.213455    0.269025   -0.614832
      3          1           0       -4.205863    0.221064   -1.928261
      4          8           0       -3.984667    0.494082   -1.024796
      5          1           0       -3.058636    0.805749   -1.075400
      6          6           0        1.097229    0.352060   -0.082008
      7          6           0       -0.272103    0.990599    0.194858
      8          1           0        1.350073    0.557136   -1.126225
      9          1           0       -0.529554    0.908254    1.256296
     10          8           0        2.153630    0.987186    0.680215
     11          1           0        2.021494    0.748351    1.614364
     12          6           0       -0.338191    2.462842   -0.219926
     13          8           0        0.464379    3.280019    0.611734
     14          1           0       -1.368712    2.818675   -0.115375
     15          1           0       -0.060959    2.552037   -1.284486
     16          1           0        1.351063    2.878375    0.620227
     17          1           0       -1.539550   -1.617770   -1.224127
     18          8           0       -2.569416   -1.255404    0.538591
     19          1           0       -3.313733   -0.800654    0.077965
     20          8           0        3.990412   -0.586378   -0.857868
     21          1           0        4.346514   -0.059018   -1.588358
     22          1           0        3.626682    0.068793   -0.227993
     23          6           0        1.100832   -1.195230    0.092253
     24          1           0        1.797428   -1.435905    0.911712
     25          6           0       -0.264101   -1.720203    0.540622
     26          1           0       -0.283853   -2.808213    0.388639
     27          8           0       -0.385733   -1.397877    1.920472
     28          1           0       -1.345379   -1.388398    2.096541
     29          8           0        1.474860   -1.855941   -1.097703
     30          1           0        2.412947   -1.607500   -1.246143
 ---------------------------------------------------------------------

 SCF Done:  E(RB3LYP) =  -839.999508423     A.U. after    1 cycles

 The electronic state is 1-A.
 Alpha  occ. eigenvalues --  -19.19560 -19.17511 -19.16461 -19.16167 -19.15364
 Alpha  occ. eigenvalues --  -19.14765 -19.14019 -19.13421 -10.29314 -10.25320
 Alpha  occ. eigenvalues --  -10.24662 -10.24316 -10.24146 -10.23582  -1.08075
 Alpha  occ. eigenvalues --   -1.05985  -1.02642  -1.02224  -1.02014  -1.01460
 Alpha  occ. eigenvalues --   -1.01130  -1.00297  -0.78345  -0.76761  -0.69268
 Alpha  occ. eigenvalues --   -0.65936  -0.62959  -0.57918  -0.55659  -0.54617
 Alpha  occ. eigenvalues --   -0.54123  -0.53606  -0.52709  -0.51742  -0.49421
 Alpha  occ. eigenvalues --   -0.47508  -0.46813  -0.44968  -0.44071  -0.42440
 Alpha  occ. eigenvalues --   -0.41674  -0.40793  -0.40126  -0.39977  -0.38368
 Alpha  occ. eigenvalues --   -0.37630  -0.36567  -0.35935  -0.34634  -0.32687
 Alpha  occ. eigenvalues --   -0.31966  -0.31358  -0.30478  -0.29607  -0.28730
 Alpha  occ. eigenvalues --   -0.27414  -0.26621  -0.25401
 Alpha virt. eigenvalues --    0.03762   0.05329   0.06289   0.08581   0.09083
 Alpha virt. eigenvalues --    0.10922   0.11964   0.12172   0.13031   0.15017
 Alpha virt. eigenvalues --    0.16024   0.16714   0.17103   0.17569   0.19025

 Mulliken charges:
               1
     1  C    0.333275
     2  O   -0.544842
     3  H    0.400415
     4  O   -0.796384
     5  H    0.422508
     6  C    0.071036
     7  C    0.092315
     8  H    0.155235
     9  H    0.156404
    10  O   -0.657272
    11  H    0.417335
    12  C   -0.037547
    13  O   -0.634719
    14  H    0.152941
    15  H    0.119714
    16  H    0.406435
    17  H    0.141683
    18  O   -0.667596
    19  H    0.435174
    20  O   -0.806249
    21  H    0.399062
    22  H    0.426563
    23  C    0.126108
    24  H    0.133659
    25  C    0.082324
    26  H    0.152025
    27  O   -0.661458
    28  H    0.424002
    29  O   -0.671337
    30  H    0.429191
 Sum of Mulliken charges =  -0.00000

 Dipole moment (field-independent basis, Debye):
    X=              0.8901    Y=              0.6158    Z=             -2.2805  Tot=              2.5243
 Quadrupole moment (field-independent basis, Debye-Ang):
   XX=            -78.1337   YY=            -97.5796   ZZ=            -77.0648
   XY=              8.0931   XZ=              4.8649   YZ=             -3.1240

  Exact polarizability: 105.311   1.532  93.422   0.794   0.815  84.756
 Approx polarizability: 133.064   3.171 121.903   1.222   3.989 129.948

                      1                      2                      3
                      A                      A                      A
 Frequencies --     35.2346                43.8554                57.4806
 Red. masses --      5.4090                 5.9586                 5.5929
 Frc consts  --      0.0040                 0.0068                 0.0109
 IR Inten    --      4.0478                 2.7333                 1.4483

                      4                      5                      6
                      A                      A                      A
 Frequencies --     80.7270               106.2800               119.0454
 Red. masses --      7.2377                 6.1871                 4.8428
 Frc consts  --      0.0278                 0.0412                 0.0404
 IR Inten    --      1.6881                17.7956                 5.8793

                      7                      8                      9
                      A                      A                      A
 Frequencies --    153.1923               178.5623               182.6918
 Red. masses --      5.9179                 3.5632                 6.4363
 Frc consts  --      0.0818                 0.0669                 0.1266
 IR Inten    --      0.9583                12.0887                 2.5432

                     10                     11                     12
                      A                      A                      A
 Frequencies --    196.2420               224.4230               232.5238
 Red. masses --      6.3519                 3.5203                 3.8239
 Frc consts  --      0.1441                 0.1045                 0.1218
 IR Inten    --      5.7327                 3.9825                21.6713

                     13                     14                     15
                      A                      A                      A
 Frequencies --    257.4305               284.9378               298.6821
 Red. masses --      1.2794                 2.7160                 1.1309
 Frc consts  --      0.0500                 0.1299                 0.0594
 IR Inten    --    139.6502                 7.8011                65.6034

                     16                     17                     18
                      A                      A                      A
 Frequencies --    304.3444               334.1654               356.0404
 Red. masses --      1.1835                 1.7069                 3.4779
 Frc consts  --      0.0646                 0.1123                 0.2598
 IR Inten    --     55.9910                53.2101                13.2643

                     19                     20                     21
                      A                      A                      A
 Frequencies --    363.3184               377.3923               403.5018
 Red. masses --      2.2094                 5.2532                 3.9623
 Frc consts  --      0.1718                 0.4408                 0.3801
 IR Inten    --     57.4634                 4.5733                 6.6524

                     22                     23                     24
                      A                      A                      A
 Frequencies --    431.7439               450.2091               497.7497
 Red. masses --      4.3879                 1.5190                 2.9407
 Frc consts  --      0.4819                 0.1814                 0.4293
 IR Inten    --     20.1981                70.6803                81.6875

                     25                     26                     27
                      A                      A                      A
 Frequencies --    515.0919               543.1361               547.2371
 Red. masses --      2.4444                 3.7092                 1.5431
 Frc consts  --      0.3821                 0.6447                 0.2723
 IR Inten    --     12.4794                10.6094               154.7233

                     28                     29                     30
                      A                      A                      A
 Frequencies --    584.8816               605.0666               664.8099
 Red. masses --      4.2733                 1.2108                 1.0976
 Frc consts  --      0.8613                 0.2612                 0.2858
 IR Inten    --     19.6543                18.2425               297.7625

                     31                     32                     33
                      A                      A                      A
 Frequencies --    679.6111               685.1638               743.1633
 Red. masses --      1.1239                 3.3958                 1.1136
 Frc consts  --      0.3058                 0.9393                 0.3624
 IR Inten    --    149.1978                 3.0372               300.6628

                     34                     35                     36
                      A                      A                      A
 Frequencies --    817.2241               834.9198               869.1394
 Red. masses --      3.7855                 1.6919                 1.8623
 Frc consts  --      1.4896                 0.6949                 0.8289
 IR Inten    --     30.7827                69.6778               110.6964

                     37                     38                     39
                      A                      A                      A
 Frequencies --    884.2195               975.4205              1013.7238
 Red. masses --      2.1705                 2.4525                 2.9941
 Frc consts  --      0.9998                 1.3748                 1.8128
 IR Inten    --      2.7224                25.1491                26.3034

                     40                     41                     42
                      A                      A                      A
 Frequencies --   1032.4098              1061.3156              1087.7256
 Red. masses --      4.5885                 4.9592                 2.4342
 Frc consts  --      2.8816                 3.2912                 1.6969
 IR Inten    --     44.6457               202.1094                26.7281

                     43                     44                     45
                      A                      A                      A
 Frequencies --   1098.5874              1101.8894              1120.1504
 Red. masses --      4.9183                 4.3016                 3.5344
 Frc consts  --      3.4973                 3.0772                 2.6129
 IR Inten    --    116.1720                52.3649                11.2537

                     46                     47                     48
                      A                      A                      A
 Frequencies --   1130.0075              1143.5044              1162.7271
 Red. masses --      3.3504                 3.9770                 2.7833
 Frc consts  --      2.5206                 3.0639                 2.2170
 IR Inten    --     53.5811               107.7157                11.0952

                     49                     50                     51
                      A                      A                      A
 Frequencies --   1208.2145              1248.4370              1277.7106
 Red. masses --      1.1406                 1.2970                 1.2418
 Frc consts  --      0.9810                 1.1911                 1.1945
 IR Inten    --     14.5913                18.6673                41.6280

                     52                     53                     54
                      A                      A                      A
 Frequencies --   1298.9020              1313.0211              1322.5129
 Red. masses --      1.1130                 1.1492                 1.2669
 Frc consts  --      1.1064                 1.1674                 1.3055
 IR Inten    --     60.8159                49.3817                 4.5715

                     55                     56                     57
                      A                      A                      A
 Frequencies --   1348.2628              1389.2590              1392.2210
 Red. masses --      1.2242                 1.2917                 1.2800
 Frc consts  --      1.3111                 1.4689                 1.4618
 IR Inten    --      0.8470                 2.8431                20.8501

                     58                     59                     60
                      A                      A                      A
 Frequencies --   1402.9815              1412.2290              1420.7703
 Red. masses --      1.2271                 1.2542                 1.2937
 Frc consts  --      1.4231                 1.4737                 1.5387
 IR Inten    --     21.1358                 1.2701                33.0714

                     61                     62                     63
                      A                      A                      A
 Frequencies --   1432.3433              1456.5216              1473.6013
 Red. masses --      1.3173                 1.4354                 1.2474
 Frc consts  --      1.5923                 1.7942                 1.5960
 IR Inten    --     26.1096               112.4932                83.8357

                     64                     65                     66
                      A                      A                      A
 Frequencies --   1502.0965              1516.5966              1544.3408
 Red. masses --      1.4806                 1.4362                 1.0933
 Frc consts  --      1.9683                 1.9463                 1.5363
 IR Inten    --     29.5084                40.8800                 0.7347

                     67                     68                     69
                      A                      A                      A
 Frequencies --   1714.4977              1722.7964              2984.6162
 Red. masses --      1.0778                 1.0772                 1.0714
 Frc consts  --      1.8666                 1.8838                 5.6230
 IR Inten    --     47.3602                58.9303                58.6801

                     70                     71                     72
                      A                      A                      A
 Frequencies --   2994.0345              3040.9073              3068.4465
 Red. masses --      1.0839                 1.0853                 1.0866
 Frc consts  --      5.7247                 5.9131                 6.0280
 IR Inten    --     38.9143                26.5927                58.9612

                     73                     74                     75
                      A                      A                      A
 Frequencies --   3082.8310              3096.9094              3103.8146
 Red. masses --      1.0836                 1.0910                 1.0896
 Frc consts  --      6.0676                 6.1648                 6.1843
 IR Inten    --      8.4138                23.2841                39.0332

                     76                     77                     78
                      A                      A                      A
 Frequencies --   3459.7271              3545.7501              3607.6951
 Red. masses --      1.0665                 1.0648                 1.0563
 Frc consts  --      7.5212                 7.8875                 8.1000
 IR Inten    --    430.8091               203.6302               399.1355

                     79                     80                     81
                      A                      A                      A
 Frequencies --   3621.2625              3667.4627              3685.2780
 Red. masses --      1.0538                 1.0645                 1.0658
 Frc consts  --      8.1421                 8.4361                 8.5283
 IR Inten    --    279.9786                71.3619                80.7460

                     82                     83                     84
                      A                      A                      A
 Frequencies --   3712.8393              3804.1046              3808.8875
 Red. masses --      1.0659                 1.0738                 1.0728
 Frc consts  --      8.6572                 9.1557                 9.1702
 IR Inten    --     29.7040                90.0309                72.7070

 - Thermochemistry -
 -------------------
 Temperature   298.150 Kelvin.  Pressure   1.00000 Atm.
 Atom     1 has atomic number  6 and mass  12.00000

 Molecular mass:   216.08452 amu.
 Principal axes and moments of inertia in atomic units:
                           1         2         3
     Eigenvalues --  2379.787163796.731485034.25950
           X            0.99999  -0.00090   0.00418
           Y            0.00093   0.99997  -0.00779
           Z           -0.00417   0.00779   0.99996
 This molecule is an asymmetric top.
 Rotational symmetry number  1.
 Warning -- assumption of classical behavior for rotation
           may cause significant error
 Rotational temperatures (Kelvin)      0.03640     0.02281     0.01720
 Rotational constants (GHZ):           0.75836     0.47534     0.35849
 Zero-point vibrational energy     655271.1 (Joules/Mol)
                                  156.61356 (Kcal/Mol)
 Warning -- explicit consideration of  29 degrees of freedom as
           vibrations may cause significant error
 Vibrational temperatures:     50.69    63.10    82.70   116.15   152.91
          (Kelvin)            171.28   220.41   256.91   262.85   282.35
                              322.89   334.55   370.38   409.96   429.74
                              437.88   480.79   512.26   522.73   542.98
                              580.55   621.18   647.75   716.15   741.10
                              781.45   787.35   841.51   870.55   956.51
                              977.81   985.80  1069.24  1175.80  1201.26
                             1250.50  1272.19  1403.41  1458.52  1485.41
                             1526.99  1564.99  1580.62  1585.37  1611.64
                             1625.83  1645.25  1672.90  1738.35  1796.22
                             1838.34  1868.83  1889.14  1902.80  1939.85
                             1998.83  2003.09  2018.57  2031.88  2044.17
                             2060.82  2095.61  2120.18  2161.18  2182.04
                             2221.96  2466.78  2478.72  4294.19  4307.74
                             4375.18  4414.80  4435.50  4455.76  4465.69
                             4977.77  5101.54  5190.66  5210.18  5276.65
                             5302.29  5341.94  5473.25  5480.13

 Zero-point correction=                           0.249580 (Hartree/Particle)
 Thermal correction to Energy=                    0.266905
 Thermal correction to Enthalpy=                  0.267849
 Thermal correction to Gibbs Free Energy=         0.204941
 Sum of electronic and zero-point Energies=           -839.749929
 Sum of electronic and thermal Energies=              -839.732604
 Sum of electronic and thermal Enthalpies=            -839.731660
 Sum of electronic and thermal Free Energies=         -839.794568

                     E (Thermal)             CV                S
                      KCal/Mol        Cal/Mol-Kelvin    Cal/Mol-Kelvin
 Total                  167.485             64.001            132.401
 Electronic               0.000              0.000              0.000
 Translational            0.889              2.981             42.015
 Rotational               0.889              2.981             32.187
 Vibrational            165.708             58.039             58.200
 Vibration     1          0.594              1.982              5.510
 Vibration     2          0.595              1.980              5.077
 Vibration     3          0.596              1.975              4.542
 Vibration     4          0.600              1.962              3.873
 Vibration     5          0.605              1.944              3.336
 Vibration     6          0.609              1.933              3.116
 Vibration     7          0.619              1.899              2.632
 Vibration     8          0.629              1.869              2.343
 Vibration     9          0.630              1.863              2.301
 Vibration    10          0.636              1.845              2.168
 Vibration    11          0.649              1.804              1.923
 Vibration    12          0.653              1.791              1.859
 Vibration    13          0.667              1.750              1.679
 Vibration    14          0.683              1.702              1.504
 Vibration    15          0.692              1.676              1.424
 Vibration    16          0.695              1.665              1.393
 Vibration    17          0.716              1.607              1.240
 Vibration    18          0.732              1.563              1.139
 Vibration    19          0.737              1.548              1.108
 Vibration    20          0.748              1.518              1.050
 Vibration    21          0.769              1.463              0.950
 Vibration    22          0.793              1.401              0.853
 Vibration    23          0.809              1.360              0.795
 Vibration    24          0.853              1.255              0.664
 Vibration    25          0.870              1.217              0.621
 Vibration    26          0.898              1.155              0.559
 Vibration    27          0.902              1.146              0.550
 Vibration    28          0.942              1.064              0.476
 Vibration    29          0.964              1.021              0.441

 Normal termination of Gaussian 09 at Sun Jan 15 13:17:13 2017.
