 Gaussian 09, Revision D.01,

 ----------------------------------------------------------------------
 # IRC=(CalcFC,Forward,MaxCycle=500,MaxPoints=10) B3LYP/6-31G(d) geom=a
 llcheck guess=read
 ----------------------------------------------------------------------

 Structure from the checkpoint file:  "/home/iawad/scratch/MAIN/PRO_Halides/direct/ircfo/glo_2w_Beta/glo_2w_Beta_ircfo_B3LYP_6-31G_d_B3LYP_6-31G_d.chk"
 -------------------------
 glo_2w_Beta_B3LYP_6-31G_d
 -------------------------
 Charge =  0 Multiplicity = 1

 SCF Done:  E(RB3LYP) =  -839.965367213     A.U. after    5 cycles
 SCF Done:  E(RB3LYP) =  -839.965765314     A.U. after   11 cycles
 SCF Done:  E(RB3LYP) =  -839.966916139     A.U. after   11 cycles
 SCF Done:  E(RB3LYP) =  -839.968684370     A.U. after   11 cycles
 SCF Done:  E(RB3LYP) =  -839.970824380     A.U. after   12 cycles
 SCF Done:  E(RB3LYP) =  -839.973011863     A.U. after   12 cycles
 SCF Done:  E(RB3LYP) =  -839.974925850     A.U. after   12 cycles
 SCF Done:  E(RB3LYP) =  -839.976490497     A.U. after   11 cycles
 SCF Done:  E(RB3LYP) =  -839.977883639     A.U. after   11 cycles
 SCF Done:  E(RB3LYP) =  -839.979203789     A.U. after   11 cycles
 Normal termination of Gaussian 09 at Tue Jun  7 19:55:24 2016.
 Gaussian 09:  AM64L-G09RevD.01 24-Apr-2013

 ---------------------------------------------------
 #N Geom=AllCheck Guess=Read OPT FREQ B3LYP 6-31G(d)
 ---------------------------------------------------

 Structure from the checkpoint file:  "/home/iawad/scratch/MAIN/PRO_Halides/direct/ircfo/glo_2w_Beta/glo_2w_Beta_ircfo_B3LYP_6-31G_d_B3LYP_6-31G_d.chk"
 -------------------------
 glo_2w_Beta_B3LYP_6-31G_d
 -------------------------
 Charge =  0 Multiplicity = 1

 SCF Done:  E(RB3LYP) =  -840.005025267     A.U. after   10 cycles
 SCF Done:  E(RB3LYP) =  -840.005030707     A.U. after    8 cycles
 SCF Done:  E(RB3LYP) =  -840.005032194     A.U. after    8 cycles
 SCF Done:  E(RB3LYP) =  -840.005032713     A.U. after    7 cycles
 SCF Done:  E(RB3LYP) =  -840.005033176     A.U. after    7 cycles
 SCF Done:  E(RB3LYP) =  -840.005033414     A.U. after    7 cycles
 SCF Done:  E(RB3LYP) =  -840.005033572     A.U. after    7 cycles
 SCF Done:  E(RB3LYP) =  -840.005033664     A.U. after    7 cycles
 SCF Done:  E(RB3LYP) =  -840.005033704     A.U. after    7 cycles
 Optimization completed.
    -- Stationary point found.
 Normal termination of Gaussian 09 at Tue Jun  7 22:59:39 2016.

 --------------------------------------------------------------------
 #N Geom=AllCheck Guess=TCheck SCRF=Check GenChk RB3LYP/6-31G(d) Freq
 --------------------------------------------------------------------

 Structure from the checkpoint file:  "/home/iawad/scratch/MAIN/PRO_Halides/direct/ircfo/glo_2w_Beta/glo_2w_Beta_ircfo_B3LYP_6-31G_d_B3LYP_6-31G_d.chk"
 -------------------------
 glo_2w_Beta_B3LYP_6-31G_d
 -------------------------
 Charge =  0 Multiplicity = 1

                         Standard orientation:
 ---------------------------------------------------------------------
 Center     Atomic      Atomic             Coordinates (Angstroms)
 Number     Number       Type             X           Y           Z
 ---------------------------------------------------------------------
      1          6           0       -0.908534    0.936367   -0.051421
      2          8           0       -0.632466   -0.446088    0.381424
      3          8           0       -2.013548    1.368893    0.619979
      4          1           0       -2.834105    1.090694    0.138202
      5          1           0       -2.763456   -2.322782   -0.870683
      6          1           0       -4.979182    0.543341    0.058876
      7          8           0       -4.249978    0.326171   -0.541819
      8          1           0       -3.985548   -0.596516   -0.302980
      9          8           0       -2.947307   -2.007601    0.027692
     10          1           0       -2.148389   -1.482830    0.269635
     11          6           0        0.296938    1.809033    0.302287
     12          6           0        1.577215    1.213189   -0.274452
     13          6           0        1.783100   -0.222695    0.181071
     14          6           0        0.536715   -1.052231   -0.170825
     15          1           0       -1.050571    0.914208   -1.145251
     16          1           0        0.370607    1.836028    1.400666
     17          1           0        1.912206   -0.233222    1.275697
     18          1           0        0.461615   -1.107127   -1.272814
     19          1           0        1.493591    1.211299   -1.374760
     20          8           0        0.077349    3.102555   -0.230035
     21          8           0        2.650771    2.055450    0.127294
     22          8           0        2.951897   -0.699276   -0.473579
     23          1           0        3.464122    1.632142   -0.194291
     24          1           0        0.928276    3.565183   -0.146640
     25          1           0        3.037355   -1.638522   -0.224615
     26          6           0        0.596936   -2.468773    0.415821
     27          8           0        1.763883   -3.182709   -0.006376
     28          1           0       -0.319872   -3.023204    0.173755
     29          1           0        0.663009   -2.400612    1.505286
     30          1           0        1.651317   -3.416588   -0.941618
 ---------------------------------------------------------------------

 SCF Done:  E(RB3LYP) =  -840.005033704     A.U. after    1 cycles

 The electronic state is 1-A.
 Alpha  occ. eigenvalues --  -19.18632 -19.17496 -19.16368 -19.15302 -19.15295
 Alpha  occ. eigenvalues --  -19.14959 -19.13709 -19.13658 -10.28878 -10.25809
 Alpha  occ. eigenvalues --  -10.25781 -10.24383 -10.23794 -10.23247  -1.07214
 Alpha  occ. eigenvalues --   -1.05475  -1.03954  -1.02334  -1.02226  -1.01117
 Alpha  occ. eigenvalues --   -1.00444  -0.99678  -0.78727  -0.77350  -0.69807
 Alpha  occ. eigenvalues --   -0.64162  -0.62898  -0.58965  -0.55548  -0.54328
 Alpha  occ. eigenvalues --   -0.54025  -0.52905  -0.52391  -0.51820  -0.50651
 Alpha  occ. eigenvalues --   -0.48620  -0.46387  -0.45166  -0.44135  -0.43367
 Alpha  occ. eigenvalues --   -0.41490  -0.41158  -0.40439  -0.38877  -0.38209
 Alpha  occ. eigenvalues --   -0.36371  -0.35899  -0.35069  -0.34367  -0.32901
 Alpha  occ. eigenvalues --   -0.31993  -0.30714  -0.30604  -0.28915  -0.28429
 Alpha  occ. eigenvalues --   -0.27863  -0.26538  -0.26100
 Alpha virt. eigenvalues --    0.03281   0.03871   0.07022   0.08637   0.08959
 Alpha virt. eigenvalues --    0.11045   0.11416   0.12868   0.13399   0.14179
 Alpha virt. eigenvalues --    0.14558   0.16245   0.17134   0.18304   0.18658

 Mulliken charges:
               1
     1  C    0.345888
     2  O   -0.545895
     3  O   -0.643089
     4  H    0.435967
     5  H    0.395153
     6  H    0.400926
     7  O   -0.815342
     8  H    0.422766
     9  O   -0.810949
    10  H    0.441349
    11  C    0.132554
    12  C    0.093110
    13  C    0.125476
    14  C    0.095349
    15  H    0.118246
    16  H    0.139201
    17  H    0.130372
    18  H    0.112461
    19  H    0.123177
    20  O   -0.638634
    21  O   -0.655945
    22  O   -0.673267
    23  H    0.413315
    24  H    0.409939
    25  H    0.415221
    26  C   -0.073000
    27  O   -0.617402
    28  H    0.142014
    29  H    0.177294
    30  H    0.403743
 Sum of Mulliken charges =   0.00000

 Dipole moment (field-independent basis, Debye):
    X=              0.6080    Y=             -3.8242    Z=             -1.9608  Tot=              4.3404
 Quadrupole moment (field-independent basis, Debye-Ang):
   XX=            -80.1327   YY=            -85.8300   ZZ=            -82.5779
   XY=              2.7909   XZ=             -1.6938   YZ=              6.7935

  Exact polarizability: 109.527  -2.143 103.231  -2.214   2.796  75.626
 Approx polarizability: 138.608  -4.586 131.072  -3.983   4.754 118.951

                      1                      2                      3
                      A                      A                      A
 Frequencies --     25.7893                43.3733                67.0760
 Red. masses --      5.5251                 5.7305                 7.2162
 Frc consts  --      0.0022                 0.0064                 0.0191
 IR Inten    --      0.1150                 0.9448                 0.6868

                      4                      5                      6
                      A                      A                      A
 Frequencies --     77.6505               109.5816               122.2080
 Red. masses --      6.1748                 5.3663                 6.0574
 Frc consts  --      0.0219                 0.0380                 0.0533
 IR Inten    --      4.2402                 5.5513                 1.1746

                      7                      8                      9
                      A                      A                      A
 Frequencies --    161.6445               174.9943               203.1290
 Red. masses --      4.0332                 4.3956                 5.3763
 Frc consts  --      0.0621                 0.0793                 0.1307
 IR Inten    --      8.8173                 3.5211                 5.3599

                     10                     11                     12
                      A                      A                      A
 Frequencies --    219.8909               246.0109               246.5464
 Red. masses --      3.4500                 1.3362                 3.0500
 Frc consts  --      0.0983                 0.0476                 0.1092
 IR Inten    --      4.9522                88.7429                28.7867

                     13                     14                     15
                      A                      A                      A
 Frequencies --    269.3303               276.1925               305.7340
 Red. masses --      3.8563                 3.7801                 3.9597
 Frc consts  --      0.1648                 0.1699                 0.2181
 IR Inten    --     70.8270                 4.6525                 8.6894

                     16                     17                     18
                      A                      A                      A
 Frequencies --    321.6921               330.7761               343.3360
 Red. masses --      2.3483                 1.8268                 3.9883
 Frc consts  --      0.1432                 0.1178                 0.2770
 IR Inten    --     67.0237                68.2932                64.3624

                     19                     20                     21
                      A                      A                      A
 Frequencies --    369.1658               390.4143               406.0175
 Red. masses --      1.1204                 1.5325                 1.2723
 Frc consts  --      0.0900                 0.1376                 0.1236
 IR Inten    --     49.0439               126.8063               173.8544

                     22                     23                     24
                      A                      A                      A
 Frequencies --    412.8757               421.8783               436.2056
 Red. masses --      2.7749                 1.7208                 2.2611
 Frc consts  --      0.2787                 0.1805                 0.2535
 IR Inten    --     48.1410                18.8368                48.4423

                     25                     26                     27
                      A                      A                      A
 Frequencies --    448.7715               484.5029               524.4788
 Red. masses --      2.9031                 5.3524                 1.1037
 Frc consts  --      0.3445                 0.7403                 0.1789
 IR Inten    --     34.5348                 5.6240                21.5472

                     28                     29                     30
                      A                      A                      A
 Frequencies --    557.8764               593.0114               623.3349
 Red. masses --      2.8875                 4.6863                 1.5747
 Frc consts  --      0.5295                 0.9710                 0.3605
 IR Inten    --      9.1290                16.6885               113.9870

                     31                     32                     33
                      A                      A                      A
 Frequencies --    635.2897               671.6047               710.3953
 Red. masses --      1.7388                 4.6980                 1.1301
 Frc consts  --      0.4135                 1.2485                 0.3360
 IR Inten    --     33.7160                17.2378               117.3042

                     34                     35                     36
                      A                      A                      A
 Frequencies --    790.6444               905.0731               934.7412
 Red. masses --      1.0781                 2.1889                 3.6345
 Frc consts  --      0.3971                 1.0564                 1.8710
 IR Inten    --    124.5559                88.9137               189.5205

                     37                     38                     39
                      A                      A                      A
 Frequencies --   1017.4443              1028.6303              1037.6722
 Red. masses --      3.8719                 1.2038                 2.9255
 Frc consts  --      2.3616                 0.7505                 1.8559
 IR Inten    --     61.9824               133.1502                 5.5696

                     40                     41                     42
                      A                      A                      A
 Frequencies --   1049.8708              1068.6750              1081.9648
 Red. masses --      2.9394                 3.6178                 4.4534
 Frc consts  --      1.9089                 2.4344                 3.0716
 IR Inten    --     90.0527                56.4074               113.8692

                     43                     44                     45
                      A                      A                      A
 Frequencies --   1091.8405              1120.0196              1135.9979
 Red. masses --      2.5366                 2.6502                 2.9681
 Frc consts  --      1.7817                 1.9587                 2.2567
 IR Inten    --     55.3730                41.5673               120.6052

                     46                     47                     48
                      A                      A                      A
 Frequencies --   1142.0604              1148.1347              1191.2015
 Red. masses --      3.3771                 3.9204                 1.5118
 Frc consts  --      2.5952                 3.0449                 1.2639
 IR Inten    --     14.5557                36.1200                 4.4606

                     49                     50                     51
                      A                      A                      A
 Frequencies --   1230.1100              1232.1090              1271.7311
 Red. masses --      2.4981                 1.3239                 1.1445
 Frc consts  --      2.2271                 1.1841                 1.0906
 IR Inten    --     62.2896                31.8796                33.4786

                     52                     53                     54
                      A                      A                      A
 Frequencies --   1282.2665              1313.7220              1345.2501
 Red. masses --      1.1410                 1.1773                 1.2028
 Frc consts  --      1.1053                 1.1971                 1.2824
 IR Inten    --     29.5521                 6.8791                 3.9789

                     55                     56                     57
                      A                      A                      A
 Frequencies --   1359.9190              1369.0288              1384.1054
 Red. masses --      1.1909                 1.2289                 1.2389
 Frc consts  --      1.2976                 1.3570                 1.3984
 IR Inten    --     19.0317                93.9969                75.8387

                     58                     59                     60
                      A                      A                      A
 Frequencies --   1392.6006              1405.9615              1425.0596
 Red. masses --      1.2580                 1.2659                 1.4299
 Frc consts  --      1.4374                 1.4744                 1.7109
 IR Inten    --     72.2057                 9.0383                 8.8943

                     61                     62                     63
                      A                      A                      A
 Frequencies --   1430.1625              1453.6192              1458.3185
 Red. masses --      1.3392                 1.6748                 1.4096
 Frc consts  --      1.6138                 2.0850                 1.7662
 IR Inten    --     38.1376                14.1643                27.7899

                     64                     65                     66
                      A                      A                      A
 Frequencies --   1480.1659              1537.3983              1560.8482
 Red. masses --      1.5567                 1.0883                 1.4016
 Frc consts  --      2.0094                 1.5156                 2.0118
 IR Inten    --      6.5978                 1.0317                18.0636

                     67                     68                     69
                      A                      A                      A
 Frequencies --   1726.4486              1733.2368              2957.7304
 Red. masses --      1.0778                 1.0725                 1.0818
 Frc consts  --      1.8928                 1.8983                 5.5760
 IR Inten    --    134.1894                67.7164                24.3000

                     70                     71                     72
                      A                      A                      A
 Frequencies --   2981.0901              2990.0402              3003.2796
 Red. masses --      1.0821                 1.0827                 1.0845
 Frc consts  --      5.6661                 5.7029                 5.7634
 IR Inten    --      2.6411                40.5725                31.6255

                     73                     74                     75
                      A                      A                      A
 Frequencies --   3024.0561              3047.1692              3127.2219
 Red. masses --      1.0855                 1.0673                 1.0996
 Frc consts  --      5.8485                 5.8390                 6.3355
 IR Inten    --    104.8810                39.7359                19.0946

                     76                     77                     78
                      A                      A                      A
 Frequencies --   3330.7358              3438.5823              3500.5260
 Red. masses --      1.0678                 1.0619                 1.0585
 Frc consts  --      6.9797                 7.3980                 7.6417
 IR Inten    --    412.9016              1111.5366               550.7474

                     79                     80                     81
                      A                      A                      A
 Frequencies --   3658.0291              3722.5584              3732.1652
 Red. masses --      1.0656                 1.0656                 1.0657
 Frc consts  --      8.4012                 8.7002                 8.7462
 IR Inten    --    141.4427                36.0268                39.5365

                     82                     83                     84
                      A                      A                      A
 Frequencies --   3738.9037              3789.6330              3794.4956
 Red. masses --      1.0663                 1.0690                 1.0682
 Frc consts  --      8.7823                 9.0449                 9.0613
 IR Inten    --     24.2280                58.4375                55.1508

 - Thermochemistry -
 -------------------
 Temperature   298.150 Kelvin.  Pressure   1.00000 Atm.
 Atom     1 has atomic number  6 and mass  12.00000

 Molecular mass:   216.08452 amu.
 Principal axes and moments of inertia in atomic units:
                           1         2         3
     Eigenvalues --  2649.494233632.729656029.00053
           X            0.99986   0.01649   0.00189
           Y           -0.01650   0.99986   0.00239
           Z           -0.00185  -0.00242   1.00000
 This molecule is an asymmetric top.
 Rotational symmetry number  1.
 Warning -- assumption of classical behavior for rotation
           may cause significant error
 Rotational temperatures (Kelvin)      0.03269     0.02384     0.01437
 Rotational constants (GHZ):           0.68116     0.49680     0.29934
 Zero-point vibrational energy     653179.1 (Joules/Mol)
                                  156.11356 (Kcal/Mol)
 Warning -- explicit consideration of  29 degrees of freedom as
           vibrations may cause significant error
 Vibrational temperatures:     37.10    62.40    96.51   111.72   157.66
          (Kelvin)            175.83   232.57   251.78   292.26   316.37
                              353.95   354.72   387.51   397.38   439.88
                              462.84   475.91   493.98   531.15   561.72
                              584.17   594.04   606.99   627.60   645.68
                              697.09   754.61   802.66   853.21   896.84
                              914.04   966.29  1022.10  1137.56  1302.20
                             1344.88  1463.87  1479.97  1492.98  1510.53
                             1537.58  1556.70  1570.91  1611.46  1634.45
                             1643.17  1651.91  1713.87  1769.85  1772.73
                             1829.74  1844.89  1890.15  1935.51  1956.62
                             1969.72  1991.42  2003.64  2022.86  2050.34
                             2057.68  2091.43  2098.19  2129.63  2211.97
                             2245.71  2483.97  2493.74  4255.51  4289.12
                             4302.00  4321.04  4350.94  4384.19  4499.37
                             4792.18  4947.35  5036.47  5263.08  5355.92
                             5369.75  5379.44  5452.43  5459.43

 Zero-point correction=                           0.248783 (Hartree/Particle)
 Thermal correction to Energy=                    0.266156
 Thermal correction to Enthalpy=                  0.267100
 Thermal correction to Gibbs Free Energy=         0.203994
 Sum of electronic and zero-point Energies=           -839.756251
 Sum of electronic and thermal Energies=              -839.738878
 Sum of electronic and thermal Enthalpies=            -839.737934
 Sum of electronic and thermal Free Energies=         -839.801040

                     E (Thermal)             CV                S
                      KCal/Mol        Cal/Mol-Kelvin    Cal/Mol-Kelvin
 Total                  167.015             64.259            132.818
 Electronic               0.000              0.000              0.000
 Translational            0.889              2.981             42.015
 Rotational               0.889              2.981             32.429
 Vibrational            165.238             58.297             58.375
 Vibration     1          0.593              1.985              6.130
 Vibration     2          0.595              1.980              5.099
 Vibration     3          0.598              1.970              4.237
 Vibration     4          0.599              1.964              3.949
 Vibration     5          0.606              1.942              3.276
 Vibration     6          0.610              1.931              3.065
 Vibration     7          0.622              1.889              2.530
 Vibration     8          0.627              1.873              2.381
 Vibration     9          0.639              1.835              2.105
 Vibration    10          0.647              1.811              1.960
 Vibration    11          0.660              1.769              1.759
 Vibration    12          0.661              1.768              1.755
 Vibration    13          0.674              1.730              1.601
 Vibration    14          0.678              1.717              1.557
 Vibration    15          0.696              1.663              1.385
 Vibration    16          0.707              1.632              1.301
 Vibration    17          0.713              1.614              1.256
 Vibration    18          0.722              1.589              1.197
 Vibration    19          0.741              1.536              1.083
 Vibration    20          0.758              1.491              0.999
 Vibration    21          0.771              1.457              0.941
 Vibration    22          0.777              1.442              0.917
 Vibration    23          0.784              1.423              0.886
 Vibration    24          0.797              1.391              0.839
 Vibration    25          0.808              1.364              0.799
 Vibration    26          0.841              1.284              0.698
 Vibration    27          0.879              1.196              0.600
 Vibration    28          0.913              1.122              0.528
 Vibration    29          0.951              1.047              0.462

 Normal termination of Gaussian 09 at Wed Jun  8 00:07:07 2016.
