 Gaussian 09, Revision E.01,
 Gaussian 09:  ES64L-G09RevE.01 30-Nov-2015

 -------------------------------------
 # b3lyp/6-31g(d) irc=(calcfc,forward)
 -------------------------------------

 ---------------------------------
 glo_2w_alpha_ts_boat5_B3LYP_631Gd
 ---------------------------------
 Symbolic Z-matrix:
 Charge =  0 Multiplicity = 1

 SCF Done:  E(RB3LYP) =  -839.920572706     A.U. after   14 cycles
 SCF Done:  E(RB3LYP) =  -839.921634884     A.U. after   11 cycles
 SCF Done:  E(RB3LYP) =  -839.923232907     A.U. after   11 cycles
 SCF Done:  E(RB3LYP) =  -839.926970564     A.U. after   11 cycles
 SCF Done:  E(RB3LYP) =  -839.929980726     A.U. after   11 cycles
 SCF Done:  E(RB3LYP) =  -839.932555850     A.U. after   11 cycles
 SCF Done:  E(RB3LYP) =  -839.934933957     A.U. after   12 cycles
 SCF Done:  E(RB3LYP) =  -839.937168807     A.U. after   12 cycles
 SCF Done:  E(RB3LYP) =  -839.939166435     A.U. after   12 cycles
 SCF Done:  E(RB3LYP) =  -839.940860293     A.U. after   11 cycles
 SCF Done:  E(RB3LYP) =  -839.942316711     A.U. after   11 cycles
 SCF Done:  E(RB3LYP) =  -839.943629875     A.U. after   11 cycles

                          Input orientation:
 ---------------------------------------------------------------------
 Center     Atomic      Atomic             Coordinates (Angstroms)
 Number     Number       Type             X           Y           Z
 ---------------------------------------------------------------------
      1          8           0        0.226950   -0.730434   -1.151363
      2          6           0       -0.764602   -0.126919    1.053544
      3          6           0       -0.259917    1.780059   -0.605076
      4          6           0       -1.167613    1.262825    0.542682
      5          6           0        0.976797    0.940320   -0.993334
      6          6           0       -0.636504   -1.154143   -0.082772
      7          1           0       -1.068690    1.973383    1.373383
      8          1           0       -0.177059   -2.050174    0.367721
      9          1           0       -1.569231   -0.496909    1.707964
     10          1           0       -0.902209    1.881998   -1.485581
     11          6           0       -1.967599   -1.574249   -0.720122
     12          1           0       -1.775121   -2.399003   -1.421327
     13          1           0       -2.388019   -0.739451   -1.279743
     14          8           0       -2.938871   -1.935888    0.258918
     15          1           0       -2.700173   -2.805490    0.614905
     16          8           0        0.281618    3.060980   -0.318840
     17          1           0        1.144019    2.877218    0.098442
     18          8           0       -2.515695    1.251042    0.050240
     19          1           0       -3.073060    0.789653    0.698233
     20          8           0        0.440403    0.006741    1.800904
     21          1           0        0.721061   -0.867767    2.111283
     22          1           0        1.151399    0.938431   -2.081618
     23          8           0        1.983482    0.986442   -0.240886
     24          1           0        2.637851   -1.719182   -0.011242
     25          8           0        2.114408   -2.203652   -0.757233
     26          1           0        1.872568   -3.086427   -0.446112
     27          1           0        1.052726   -1.368445   -1.104336
     28          8           0        3.163738   -0.796676    0.929883
     29          1           0        4.111725   -0.653308    0.790725
     30          1           0        2.698035    0.030532    0.580093
 ---------------------------------------------------------------------

 Alpha  occ. eigenvalues --  -19.17818 -19.16476 -19.15873 -19.15067 -19.14983
 Alpha  occ. eigenvalues --  -19.14731 -19.12690 -19.10710 -10.27725 -10.25398
 Alpha  occ. eigenvalues --  -10.24381 -10.23935 -10.23322 -10.22500  -1.06329
 Alpha  occ. eigenvalues --   -1.03561  -1.02969  -1.02485  -1.02079  -1.01455
 Alpha  occ. eigenvalues --   -0.99858  -0.98154  -0.77985  -0.74475  -0.68831
 Alpha  occ. eigenvalues --   -0.64174  -0.62080  -0.56732  -0.55888  -0.55251
 Alpha  occ. eigenvalues --   -0.54010  -0.52765  -0.51238  -0.50052  -0.49088
 Alpha  occ. eigenvalues --   -0.46841  -0.45946  -0.45102  -0.44182  -0.43066
 Alpha  occ. eigenvalues --   -0.42217  -0.40322  -0.39840  -0.38479  -0.36535
 Alpha  occ. eigenvalues --   -0.35999  -0.34813  -0.34089  -0.33930  -0.32030
 Alpha  occ. eigenvalues --   -0.31534  -0.31381  -0.29634  -0.29340  -0.27198
 Alpha  occ. eigenvalues --   -0.25781  -0.25178  -0.22740
 Alpha virt. eigenvalues --    0.02578   0.03634   0.04933   0.07352   0.08716
 Alpha virt. eigenvalues --    0.09131   0.11735   0.12695   0.13530   0.14076
 Alpha virt. eigenvalues --    0.15259   0.16847   0.17413   0.17886   0.19992

 Mulliken charges:
               1
     1  O   -0.635361
     2  C    0.079113
     3  C    0.103108
     4  C    0.136361
     5  C    0.294636
     6  C    0.083428
     7  H    0.152844
     8  H    0.081166
     9  H    0.121323
    10  H    0.154919
    11  C   -0.057227
    12  H    0.129848
    13  H    0.193847
    14  O   -0.616060
    15  H    0.391248
    16  O   -0.639679
    17  H    0.404610
    18  O   -0.639339
    19  H    0.402756
    20  O   -0.619053
    21  H    0.394164
    22  H    0.125928
    23  O   -0.585274
    24  H    0.446177
    25  O   -0.839178
    26  H    0.398810
    27  H    0.487776
    28  O   -0.830191
    29  H    0.402609
    30  H    0.476692
 Sum of Mulliken charges =  -0.00000

 Dipole moment (field-independent basis, Debye):
    X=              0.9906    Y=             -6.2912    Z=              1.6807  Tot=              6.5868
 Quadrupole moment (field-independent basis, Debye-Ang):
   XX=            -80.3888   YY=            -79.2592   ZZ=            -84.0394
   XY=              1.4453   XZ=             -1.7446   YZ=             -2.4526

  Exact polarizability:   0.000   0.000   0.000   0.000   0.000   0.000
 Approx polarizability: 144.511   6.599 138.242   9.715  -1.658 122.210

 Normal termination of Gaussian 09 at Sat Jan 14 01:04:40 2017.
