 Gaussian 09, Revision E.01,
 Gaussian 09:  ES64L-G09RevE.01 30-Nov-2015

 -------------------------------------
 # b3lyp/6-31g(d) irc=(calcfc,reverse)
 -------------------------------------

 --------------------------------
 glo_1w_beta_ts_boat5_B3LYP_631Gd
 --------------------------------
 Symbolic Z-matrix:
 Charge =  0 Multiplicity = 1

 SCF Done:  E(RB3LYP) =  -839.941103584     A.U. after   14 cycles
 SCF Done:  E(RB3LYP) =  -839.941526450     A.U. after   11 cycles
 SCF Done:  E(RB3LYP) =  -839.942660226     A.U. after   12 cycles
 SCF Done:  E(RB3LYP) =  -839.944207020     A.U. after   12 cycles
 SCF Done:  E(RB3LYP) =  -839.945808991     A.U. after   12 cycles
 SCF Done:  E(RB3LYP) =  -839.947250379     A.U. after   12 cycles
 SCF Done:  E(RB3LYP) =  -839.948537163     A.U. after   11 cycles
 SCF Done:  E(RB3LYP) =  -839.949718979     A.U. after   11 cycles
 SCF Done:  E(RB3LYP) =  -839.950830103     A.U. after   11 cycles
 SCF Done:  E(RB3LYP) =  -839.951867373     A.U. after   11 cycles
 SCF Done:  E(RB3LYP) =  -839.951883554     A.U. after   10 cycles
 SCF Done:  E(RB3LYP) =  -839.952885057     A.U. after   11 cycles

                          Input orientation:
 ---------------------------------------------------------------------
 Center     Atomic      Atomic             Coordinates (Angstroms)
 Number     Number       Type             X           Y           Z
 ---------------------------------------------------------------------
      1          8           0        1.210484    0.667502   -0.522720
      2          6           0        0.533166   -1.068387    1.023857
      3          6           0       -1.267947    0.586555    0.001148
      4          6           0       -0.916309   -0.828396    0.542873
      5          6           0       -0.232724    1.663819    0.294635
      6          6           0        1.624750   -0.538651    0.083417
      7          1           0       -1.570654   -0.990283    1.413768
      8          1           0        2.521463   -0.378978    0.700576
      9          1           0        0.694000   -2.155222    1.114001
     10          1           0       -1.325540    0.516250   -1.093542
     11          6           0        1.941249   -1.507199   -1.061495
     12          1           0        2.681770   -1.034693   -1.723687
     13          1           0        1.033909   -1.681615   -1.643999
     14          1           0        0.232857    1.623370    1.290478
     15          8           0       -0.235318    2.714108   -0.366499
     16          8           0        2.375345   -2.778741   -0.600257
     17          1           0        3.239832   -2.662802   -0.175707
     18          8           0       -2.475422    1.058380    0.561687
     19          1           0       -3.193850    0.539264    0.135851
     20          8           0       -1.279269   -1.761543   -0.498910
     21          1           0       -1.120729   -2.663867   -0.175107
     22          8           0        0.741342   -0.443486    2.291641
     23          1           0        0.048633   -0.745874    2.900750
     24          8           0        2.214591    2.895008   -0.496536
     25          1           0        1.877955    1.439544   -0.512141
     26          1           0        2.437995    3.181823   -1.395383
     27          1           0        1.242275    3.143342   -0.382516
     28          8           0       -3.920032   -0.845392   -0.890131
     29          1           0       -3.080264   -1.352057   -0.904097
     30          1           0       -4.030928   -0.529783   -1.799818
 ---------------------------------------------------------------------

 Alpha  occ. eigenvalues --  -19.18650 -19.16549 -19.16171 -19.16074 -19.15177
 Alpha  occ. eigenvalues --  -19.14743 -19.12149 -19.10889 -10.26540 -10.25429
 Alpha  occ. eigenvalues --  -10.25394 -10.25041 -10.23811 -10.23079  -1.06150
 Alpha  occ. eigenvalues --   -1.05025  -1.03578  -1.03192  -1.01403  -1.00906
 Alpha  occ. eigenvalues --   -1.00197  -0.98916  -0.78526  -0.75189  -0.68941
 Alpha  occ. eigenvalues --   -0.65439  -0.61460  -0.56738  -0.55530  -0.54837
 Alpha  occ. eigenvalues --   -0.53334  -0.53133  -0.52767  -0.51198  -0.49143
 Alpha  occ. eigenvalues --   -0.46039  -0.45822  -0.44231  -0.43986  -0.42668
 Alpha  occ. eigenvalues --   -0.41916  -0.41191  -0.40030  -0.39008  -0.38078
 Alpha  occ. eigenvalues --   -0.36545  -0.35234  -0.34924  -0.33691  -0.33543
 Alpha  occ. eigenvalues --   -0.31464  -0.30181  -0.30004  -0.29141  -0.28723
 Alpha  occ. eigenvalues --   -0.26176  -0.25188  -0.23187
 Alpha virt. eigenvalues --    0.02165   0.03915   0.05342   0.05979   0.07407
 Alpha virt. eigenvalues --    0.07803   0.10837   0.12440   0.13623   0.14862
 Alpha virt. eigenvalues --    0.16058   0.16839   0.17255   0.18169   0.18576

 Mulliken charges:
               1
     1  O   -0.651440
     2  C    0.084551
     3  C    0.108290
     4  C    0.080862
     5  C    0.302206
     6  C    0.119518
     7  H    0.133646
     8  H    0.141017
     9  H    0.130138
    10  H    0.138277
    11  C   -0.061787
    12  H    0.131895
    13  H    0.172169
    14  H    0.149961
    15  O   -0.549648
    16  O   -0.614164
    17  H    0.393626
    18  O   -0.668434
    19  H    0.426285
    20  O   -0.644511
    21  H    0.408345
    22  O   -0.627676
    23  H    0.398271
    24  O   -0.813275
    25  H    0.450732
    26  H    0.399169
    27  H    0.444716
    28  O   -0.807029
    29  H    0.425556
    30  H    0.398736
 Sum of Mulliken charges =  -0.00000

 Dipole moment (field-independent basis, Debye):
    X=              2.3639    Y=             -3.9969    Z=             -1.0219  Tot=              4.7547
 Quadrupole moment (field-independent basis, Debye-Ang):
   XX=            -82.5232   YY=            -88.9580   ZZ=            -75.5961
   XY=              4.8810   XZ=              0.7081   YZ=             -8.8756

  Exact polarizability:   0.000   0.000   0.000   0.000   0.000   0.000
 Approx polarizability: 134.257  -4.726 143.164   0.195  -5.465 125.643

 Normal termination of Gaussian 09 at Sat Jan 14 00:52:48 2017.
