 Gaussian 09, Revision D.01,
 Gaussian 09:  ES64L-G09RevD.01 24-Apr-2013

 --------------------------------------------------
 # b3lyp/6-31g(d) irc=(calcfc,reverse,maxpoints=20)
 --------------------------------------------------

 ---------------------------------
 glo_1w_alpha_ts_boat5_B3LYP_631Gd
 ---------------------------------
 Symbolic Z-matrix:
 Charge =  0 Multiplicity = 1

 SCF Done:  E(RB3LYP) =  -839.940690893     A.U. after   14 cycles
 SCF Done:  E(RB3LYP) =  -839.940931449     A.U. after   12 cycles
 SCF Done:  E(RB3LYP) =  -839.941628343     A.U. after   12 cycles
 SCF Done:  E(RB3LYP) =  -839.942631751     A.U. after   12 cycles
 SCF Done:  E(RB3LYP) =  -839.943703495     A.U. after   12 cycles
 SCF Done:  E(RB3LYP) =  -839.944740917     A.U. after   11 cycles
 SCF Done:  E(RB3LYP) =  -839.945738961     A.U. after   11 cycles
 SCF Done:  E(RB3LYP) =  -839.946708275     A.U. after   11 cycles
 SCF Done:  E(RB3LYP) =  -839.947651599     A.U. after   11 cycles
 SCF Done:  E(RB3LYP) =  -839.948552937     A.U. after   11 cycles
 SCF Done:  E(RB3LYP) =  -839.952044918     A.U. after   11 cycles
 SCF Done:  E(RB3LYP) =  -839.952847850     A.U. after   11 cycles
 SCF Done:  E(RB3LYP) =  -839.953625615     A.U. after   11 cycles
 SCF Done:  E(RB3LYP) =  -839.954375247     A.U. after   11 cycles
 SCF Done:  E(RB3LYP) =  -839.954388745     A.U. after   10 cycles
 SCF Done:  E(RB3LYP) =  -839.955118072     A.U. after   11 cycles
 SCF Done:  E(RB3LYP) =  -839.955826950     A.U. after   11 cycles
 SCF Done:  E(RB3LYP) =  -839.956503519     A.U. after   10 cycles
 SCF Done:  E(RB3LYP) =  -839.957143002     A.U. after   11 cycles
 SCF Done:  E(RB3LYP) =  -839.957158474     A.U. after   10 cycles

                          Input orientation:
 ---------------------------------------------------------------------
 Center     Atomic      Atomic             Coordinates (Angstroms)
 Number     Number       Type             X           Y           Z
 ---------------------------------------------------------------------
      1          8           0       -1.469104   -0.145137   -1.156165
      2          6           0       -0.646912    0.741892    1.010865
      3          6           0        1.080571   -0.642925   -0.404794
      4          6           0        0.608520   -0.172416    0.985564
      5          6           0        0.042443   -1.454834   -1.176149
      6          6           0       -1.330266    1.009281   -0.343015
      7          1           0        0.344675   -1.078349    1.544895
      8          1           0       -2.343178    1.385429   -0.118474
      9          1           0       -0.339134    1.715092    1.410804
     10          1           0        1.487606    0.190156   -0.978598
     11          6           0       -0.642287    2.107917   -1.163687
     12          1           0       -1.036913    2.067900   -2.187815
     13          1           0        0.440253    1.971072   -1.216960
     14          8           0       -0.844509    3.371275   -0.549127
     15          1           0       -1.748287    3.658720   -0.750448
     16          8           0        2.155242   -1.572336   -0.276689
     17          1           0        1.744926   -2.422485   -0.035745
     18          8           0        1.716601    0.488548    1.606128
     19          1           0        1.648699    0.367670    2.564735
     20          8           0       -1.571942    0.117590    1.935603
     21          1           0       -2.254354    0.769969    2.162457
     22          1           0        0.050945   -1.347455   -2.271029
     23          8           0       -0.381839   -2.487333   -0.637048
     24          1           0       -2.022265   -2.477982    0.038274
     25          8           0       -2.749750   -1.851678    0.244074
     26          1           0       -2.463038   -1.422373    1.075981
     27          1           0       -2.135649   -0.774213   -0.714987
     28          8           0        3.901042    0.687752   -0.377945
     29          1           0        3.402662    0.832927    0.444162
     30          1           0        3.799625   -0.271488   -0.491073
 ---------------------------------------------------------------------

 Alpha  occ. eigenvalues --  -19.19090 -19.17736 -19.17323 -19.16749 -19.16241
 Alpha  occ. eigenvalues --  -19.15614 -19.13442 -19.09683 -10.28960 -10.26392
 Alpha  occ. eigenvalues --  -10.26372 -10.26145 -10.25037 -10.24897  -1.07315
 Alpha  occ. eigenvalues --   -1.05494  -1.05125  -1.04066  -1.03489  -1.01742
 Alpha  occ. eigenvalues --   -1.01062  -0.95712  -0.80015  -0.75908  -0.70977
 Alpha  occ. eigenvalues --   -0.65487  -0.62955  -0.58742  -0.56629  -0.55174
 Alpha  occ. eigenvalues --   -0.53925  -0.53515  -0.51444  -0.50553  -0.49650
 Alpha  occ. eigenvalues --   -0.47367  -0.46909  -0.46229  -0.45213  -0.44493
 Alpha  occ. eigenvalues --   -0.43647  -0.41714  -0.40641  -0.38830  -0.38274
 Alpha  occ. eigenvalues --   -0.37523  -0.36956  -0.35380  -0.34404  -0.32991
 Alpha  occ. eigenvalues --   -0.32815  -0.31291  -0.30257  -0.29411  -0.29164
 Alpha  occ. eigenvalues --   -0.27436  -0.25638  -0.24964
 Alpha virt. eigenvalues --   -0.00485   0.03504   0.04669   0.05093   0.08403
 Alpha virt. eigenvalues --    0.09079   0.09441   0.11427   0.12099   0.12652
 Alpha virt. eigenvalues --    0.14214   0.15338   0.16527   0.17679   0.18355

 Mulliken charges:
               1
     1  O   -0.645745
     2  C    0.080830
     3  C    0.063229
     4  C    0.111386
     5  C    0.283001
     6  C    0.100045
     7  H    0.150363
     8  H    0.110839
     9  H    0.172798
    10  H    0.169673
    11  C   -0.079357
    12  H    0.154350
    13  H    0.184224
    14  O   -0.608837
    15  H    0.394822
    16  O   -0.640223
    17  H    0.405482
    18  O   -0.632895
    19  H    0.408317
    20  O   -0.650915
    21  H    0.405685
    22  H    0.143326
    23  O   -0.541622
    24  H    0.441561
    25  O   -0.827088
    26  H    0.417716
    27  H    0.452661
    28  O   -0.834331
    29  H    0.404809
    30  H    0.405898
 Sum of Mulliken charges =   0.00000

 Dipole moment (field-independent basis, Debye):
    X=             -4.5225    Y=              1.3476    Z=              2.8614  Tot=              5.5187
 Quadrupole moment (field-independent basis, Debye-Ang):
   XX=            -99.3282   YY=            -87.4235   ZZ=            -74.3685
   XY=            -18.6258   XZ=              2.9100   YZ=             -0.7550

  Exact polarizability:   0.000   0.000   0.000   0.000   0.000   0.000
 Approx polarizability: 135.254  -1.395 145.161  -4.900  -2.439 122.754

 Normal termination of Gaussian 09 at Sun Jan 22 19:23:52 2017.
