 Gaussian 09, Revision E.01,
 Gaussian 09:  ES64L-G09RevE.01 30-Nov-2015

 -------------------------------------
 # b3lyp/6-31g(d) irc=(calcfc,forward)
 -------------------------------------

 ---------------------------------
 glo_1w_alpha_ts_boat5_B3LYP_631Gd
 ---------------------------------
 Symbolic Z-matrix:
 Charge =  0 Multiplicity = 1

 SCF Done:  E(RB3LYP) =  -839.823423347     A.U. after   15 cycles
 SCF Done:  E(RB3LYP) =  -839.822627585     A.U. after   12 cycles
 SCF Done:  E(RB3LYP) =  -839.827027742     A.U. after   12 cycles
 SCF Done:  E(RB3LYP) =  -839.834319911     A.U. after   12 cycles
 SCF Done:  E(RB3LYP) =  -839.840767334     A.U. after   12 cycles
 SCF Done:  E(RB3LYP) =  -839.846622902     A.U. after   12 cycles
 SCF Done:  E(RB3LYP) =  -839.852000197     A.U. after   12 cycles
 SCF Done:  E(RB3LYP) =  -839.856991751     A.U. after   12 cycles
 SCF Done:  E(RB3LYP) =  -839.861692511     A.U. after   12 cycles
 SCF Done:  E(RB3LYP) =  -839.866193389     A.U. after   12 cycles
 SCF Done:  E(RB3LYP) =  -839.870562219     A.U. after   12 cycles
 SCF Done:  E(RB3LYP) =  -839.874821428     A.U. after   12 cycles

                          Input orientation:
 ---------------------------------------------------------------------
 Center     Atomic      Atomic             Coordinates (Angstroms)
 Number     Number       Type             X           Y           Z
 ---------------------------------------------------------------------
      1          8           0       -1.215370   -0.431080   -1.199628
      2          6           0       -0.463971    0.505855    1.032076
      3          6           0        1.286552   -0.548956   -0.526161
      4          6           0        0.990284    0.510143    0.581478
      5          6           0        0.140593   -1.468650   -0.883477
      6          6           0       -1.411575    0.585557   -0.176687
      7          1           0        1.596491    0.275450    1.465604
      8          1           0       -2.431774    0.433466    0.219691
      9          1           0       -0.629506    1.424819    1.611271
     10          1           0        1.643487   -0.009861   -1.400490
     11          6           0       -1.409275    1.937817   -0.898883
     12          1           0       -2.226407    1.935427   -1.632421
     13          1           0       -0.472869    2.076417   -1.436954
     14          8           0       -1.538737    3.027596    0.010082
     15          1           0       -2.463415    3.064869    0.299176
     16          8           0        2.324154   -1.480843   -0.168949
     17          1           0        1.886175   -2.179891    0.352999
     18          8           0        1.335584    1.815971    0.070551
     19          1           0        0.923568    2.490625    0.638124
     20          8           0       -0.726649   -0.604663    1.899149
     21          1           0       -1.633228   -0.498680    2.226590
     22          1           0        0.262671   -1.872380   -1.897375
     23          8           0       -0.162455   -2.357392    0.048237
     24          1           0       -1.273537   -2.432466    0.188066
     25          8           0       -2.462737   -2.076469    0.009762
     26          1           0       -2.749061   -1.601465    0.800296
     27          1           0       -2.104857   -1.332897   -0.697617
     28          8           0        3.320860    0.772199   -0.107771
     29          1           0        2.978900    1.410492    0.519115
     30          1           0        3.140055   -0.120896    0.212292
 ---------------------------------------------------------------------

 Alpha  occ. eigenvalues --  -19.18044 -19.17577 -19.17416 -19.17336 -19.16436
 Alpha  occ. eigenvalues --  -19.16195 -19.13036 -19.07178 -10.29928 -10.26411
 Alpha  occ. eigenvalues --  -10.26239 -10.25680 -10.24636 -10.24421  -1.07943
 Alpha  occ. eigenvalues --   -1.05144  -1.04666  -1.04355  -1.03340  -1.00833
 Alpha  occ. eigenvalues --   -1.00103  -0.94870  -0.79438  -0.76493  -0.70774
 Alpha  occ. eigenvalues --   -0.66326  -0.63466  -0.59198  -0.56638  -0.55684
 Alpha  occ. eigenvalues --   -0.54424  -0.53518  -0.51937  -0.50929  -0.50559
 Alpha  occ. eigenvalues --   -0.48465  -0.47082  -0.45894  -0.44918  -0.44360
 Alpha  occ. eigenvalues --   -0.42374  -0.41851  -0.41085  -0.38836  -0.37892
 Alpha  occ. eigenvalues --   -0.36953  -0.36237  -0.35609  -0.34245  -0.31884
 Alpha  occ. eigenvalues --   -0.31067  -0.30674  -0.29982  -0.29388  -0.28604
 Alpha  occ. eigenvalues --   -0.27371  -0.25784  -0.23121
 Alpha virt. eigenvalues --    0.00535   0.01848   0.03774   0.06812   0.08027
 Alpha virt. eigenvalues --    0.10341   0.11129   0.11967   0.12782   0.14263
 Alpha virt. eigenvalues --    0.15696   0.16145   0.17302   0.17578   0.19446

 Mulliken charges:
               1
     1  O   -0.617249
     2  C    0.078714
     3  C    0.122151
     4  C    0.062301
     5  C    0.290227
     6  C    0.083128
     7  H    0.145534
     8  H    0.078943
     9  H    0.129764
    10  H    0.209850
    11  C   -0.064470
    12  H    0.142990
    13  H    0.199543
    14  O   -0.618538
    15  H    0.394534
    16  O   -0.657989
    17  H    0.423964
    18  O   -0.615715
    19  H    0.404114
    20  O   -0.615934
    21  H    0.381202
    22  H    0.152976
    23  O   -0.645207
    24  H    0.483616
    25  O   -0.814693
    26  H    0.393465
    27  H    0.470978
    28  O   -0.800315
    29  H    0.384748
    30  H    0.417365
 Sum of Mulliken charges =  -0.00000

 Dipole moment (field-independent basis, Debye):
    X=             -6.2885    Y=              1.8097    Z=              3.3019  Tot=              7.3295
 Quadrupole moment (field-independent basis, Debye-Ang):
   XX=            -89.5257   YY=            -88.5988   ZZ=            -79.8414
   XY=             -8.6814   XZ=             -1.2933   YZ=              3.4917

  Exact polarizability:   0.000   0.000   0.000   0.000   0.000   0.000
 Approx polarizability: 143.201  -5.238 144.094  -6.881  -4.757 126.083

 Normal termination of Gaussian 09 at Sat Jan 14 01:20:20 2017.
