 Gaussian 09, Revision D.01,
 Gaussian 09:  ES64L-G09RevD.01 24-Apr-2013

 --------------------------------------------------
 # b3lyp/6-31g(d) irc=(calcfc,forward,maxpoints=20)
 --------------------------------------------------

 ---------------------------------
 glo_1w_alpha_ts_boat5_B3LYP_631Gd
 ---------------------------------
 Symbolic Z-matrix:
 Charge =  0 Multiplicity = 1

 SCF Done:  E(RB3LYP) =  -839.940690893     A.U. after   14 cycles
 SCF Done:  E(RB3LYP) =  -839.940925456     A.U. after   12 cycles
 SCF Done:  E(RB3LYP) =  -839.941629556     A.U. after   11 cycles
 SCF Done:  E(RB3LYP) =  -839.941647772     A.U. after   10 cycles
 SCF Done:  E(RB3LYP) =  -839.942866261     A.U. after   11 cycles
 SCF Done:  E(RB3LYP) =  -839.944696774     A.U. after   11 cycles
 SCF Done:  E(RB3LYP) =  -839.947135883     A.U. after   12 cycles
 SCF Done:  E(RB3LYP) =  -839.950052725     A.U. after   12 cycles
 SCF Done:  E(RB3LYP) =  -839.953111991     A.U. after   12 cycles
 SCF Done:  E(RB3LYP) =  -839.955871037     A.U. after   12 cycles
 SCF Done:  E(RB3LYP) =  -839.965264775     A.U. after   11 cycles
 SCF Done:  E(RB3LYP) =  -839.965292087     A.U. after   10 cycles
 SCF Done:  E(RB3LYP) =  -839.966766314     A.U. after   11 cycles
 SCF Done:  E(RB3LYP) =  -839.968132139     A.U. after   11 cycles
 SCF Done:  E(RB3LYP) =  -839.969373679     A.U. after   11 cycles
 SCF Done:  E(RB3LYP) =  -839.970504806     A.U. after   10 cycles
 SCF Done:  E(RB3LYP) =  -839.971531128     A.U. after   11 cycles
 SCF Done:  E(RB3LYP) =  -839.972463926     A.U. after   10 cycles
 SCF Done:  E(RB3LYP) =  -839.973304555     A.U. after   11 cycles
 SCF Done:  E(RB3LYP) =  -839.973316751     A.U. after   10 cycles

                          Input orientation:
 ---------------------------------------------------------------------
 Center     Atomic      Atomic             Coordinates (Angstroms)
 Number     Number       Type             X           Y           Z
 ---------------------------------------------------------------------
      1          8           0       -1.290664   -0.271095   -1.159557
      2          6           0       -0.640861    0.738475    1.015292
      3          6           0        1.056786   -0.615341   -0.396773
      4          6           0        0.617329   -0.165988    1.003775
      5          6           0       -0.145142   -1.197829   -1.158612
      6          6           0       -1.262964    0.939537   -0.372008
      7          1           0        0.357130   -1.073982    1.561235
      8          1           0       -2.323359    1.197067   -0.233299
      9          1           0       -0.353084    1.723201    1.399649
     10          1           0        1.502934    0.223303   -0.935172
     11          6           0       -0.627942    2.097834   -1.171241
     12          1           0       -1.028720    2.063200   -2.193074
     13          1           0        0.457206    1.990875   -1.236291
     14          8           0       -0.854876    3.354097   -0.543922
     15          1           0       -1.756430    3.640704   -0.756418
     16          8           0        2.089756   -1.584702   -0.303456
     17          1           0        1.639235   -2.431314   -0.122704
     18          8           0        1.724476    0.494407    1.614001
     19          1           0        1.664209    0.377526    2.573581
     20          8           0       -1.577712    0.119049    1.929163
     21          1           0       -2.244567    0.781098    2.172940
     22          1           0        0.097693   -1.330036   -2.218756
     23          8           0       -0.432365   -2.455200   -0.611743
     24          1           0       -1.339905   -2.441508   -0.184153
     25          8           0       -2.728180   -1.862189    0.240703
     26          1           0       -2.496572   -1.354833    1.044621
     27          1           0       -2.614229   -1.196784   -0.466655
     28          8           0        3.900482    0.685816   -0.377260
     29          1           0        3.401092    0.825425    0.445411
     30          1           0        3.791033   -0.271255   -0.503060
 ---------------------------------------------------------------------

 Alpha  occ. eigenvalues --  -19.19403 -19.18724 -19.17275 -19.17226 -19.15415
 Alpha  occ. eigenvalues --  -19.14928 -19.13821 -19.09723 -10.29846 -10.27109
 Alpha  occ. eigenvalues --  -10.26670 -10.25739 -10.25424 -10.24466  -1.08056
 Alpha  occ. eigenvalues --   -1.05844  -1.04698  -1.04338  -1.02621  -1.01517
 Alpha  occ. eigenvalues --   -0.99599  -0.95714  -0.80398  -0.77462  -0.71128
 Alpha  occ. eigenvalues --   -0.66340  -0.64934  -0.59055  -0.57366  -0.54851
 Alpha  occ. eigenvalues --   -0.54055  -0.52946  -0.52422  -0.50879  -0.49224
 Alpha  occ. eigenvalues --   -0.48393  -0.47104  -0.45821  -0.45707  -0.44196
 Alpha  occ. eigenvalues --   -0.43010  -0.41628  -0.40869  -0.38599  -0.37921
 Alpha  occ. eigenvalues --   -0.37463  -0.37062  -0.35531  -0.34287  -0.33018
 Alpha  occ. eigenvalues --   -0.32256  -0.31900  -0.30314  -0.29236  -0.29008
 Alpha  occ. eigenvalues --   -0.27594  -0.26060  -0.25451
 Alpha virt. eigenvalues --    0.03249   0.03958   0.05198   0.06539   0.09047
 Alpha virt. eigenvalues --    0.09586   0.10228   0.11994   0.13047   0.13859
 Alpha virt. eigenvalues --    0.14145   0.15444   0.16618   0.17644   0.18060

 Mulliken charges:
               1
     1  O   -0.565980
     2  C    0.081112
     3  C    0.066538
     4  C    0.110015
     5  C    0.343029
     6  C    0.099466
     7  H    0.153767
     8  H    0.120297
     9  H    0.176366
    10  H    0.168503
    11  C   -0.083259
    12  H    0.152493
    13  H    0.187588
    14  O   -0.606788
    15  H    0.396028
    16  O   -0.648874
    17  H    0.413929
    18  O   -0.634898
    19  H    0.407144
    20  O   -0.648989
    21  H    0.405764
    22  H    0.151509
    23  O   -0.683854
    24  H    0.443230
    25  O   -0.829310
    26  H    0.418277
    27  H    0.427786
    28  O   -0.832187
    29  H    0.405658
    30  H    0.405640
 Sum of Mulliken charges =   0.00000

 Dipole moment (field-independent basis, Debye):
    X=             -5.0976    Y=              2.3065    Z=              2.6279  Tot=              6.1815
 Quadrupole moment (field-independent basis, Debye-Ang):
   XX=            -97.8744   YY=            -89.7572   ZZ=            -74.1889
   XY=            -19.3301   XZ=              4.0684   YZ=             -0.5836

  Exact polarizability:   0.000   0.000   0.000   0.000   0.000   0.000
 Approx polarizability: 131.497  -2.148 134.373  -4.829   1.795 119.419

 Normal termination of Gaussian 09 at Sun Jan 22 19:16:49 2017.
