 Gaussian 09, Revision E.01,
 Gaussian 09:  ES64L-G09RevE.01 30-Nov-2015

 -------------------------------------
 # b3lyp/6-31g(d) irc=(calcfc,reverse)
 -------------------------------------

 ---------------------------------
 glo_1w_alpha_ts_boat5_B3LYP_631Gd
 ---------------------------------
 Symbolic Z-matrix:
 Charge =  0 Multiplicity = 1

 SCF Done:  E(RB3LYP) =  -839.878536467     A.U. after   14 cycles
 SCF Done:  E(RB3LYP) =  -839.879452519     A.U. after   12 cycles
 SCF Done:  E(RB3LYP) =  -839.880773890     A.U. after   11 cycles
 SCF Done:  E(RB3LYP) =  -839.881092861     A.U. after   10 cycles
 SCF Done:  E(RB3LYP) =  -839.885156318     A.U. after   13 cycles
 SCF Done:  E(RB3LYP) =  -839.888687162     A.U. after   12 cycles
 SCF Done:  E(RB3LYP) =  -839.892143154     A.U. after   12 cycles
 SCF Done:  E(RB3LYP) =  -839.895606567     A.U. after   12 cycles
 SCF Done:  E(RB3LYP) =  -839.899140758     A.U. after   12 cycles
 SCF Done:  E(RB3LYP) =  -839.902669565     A.U. after   12 cycles
 SCF Done:  E(RB3LYP) =  -839.906043190     A.U. after   12 cycles
 SCF Done:  E(RB3LYP) =  -839.909153959     A.U. after   12 cycles
 SCF Done:  E(RB3LYP) =  -839.912015779     A.U. after   12 cycles

                          Input orientation:
 ---------------------------------------------------------------------
 Center     Atomic      Atomic             Coordinates (Angstroms)
 Number     Number       Type             X           Y           Z
 ---------------------------------------------------------------------
      1          8           0       -1.224036   -0.488762   -1.150025
      2          6           0       -0.496912    0.524638    1.011481
      3          6           0        1.295797   -0.529537   -0.567397
      4          6           0        0.951628    0.525331    0.537726
      5          6           0        0.144901   -1.456197   -0.917853
      6          6           0       -1.465212    0.556007   -0.178260
      7          1           0        1.576310    0.331114    1.418259
      8          1           0       -2.477169    0.393731    0.237018
      9          1           0       -0.654189    1.453151    1.576037
     10          1           0        1.633014    0.028850   -1.439860
     11          6           0       -1.502545    1.906714   -0.911961
     12          1           0       -2.330969    1.891235   -1.632218
     13          1           0       -0.574702    2.060714   -1.458833
     14          8           0       -1.626116    2.997604    0.002842
     15          1           0       -2.543515    3.027896    0.315283
     16          8           0        2.360963   -1.416175   -0.212423
     17          1           0        1.954619   -2.103472    0.348930
     18          8           0        1.237705    1.816803   -0.030732
     19          1           0        0.839740    2.505566    0.529213
     20          8           0       -0.722024   -0.583711    1.894566
     21          1           0       -1.537368   -0.391807    2.384900
     22          1           0        0.203678   -1.840554   -1.942277
     23          8           0       -0.069461   -2.371699    0.029966
     24          1           0       -1.091097   -2.522258    0.158677
     25          8           0       -2.433064   -2.167756    0.091539
     26          1           0       -2.555849   -1.678399    0.915944
     27          1           0       -2.164834   -1.467322   -0.591424
     28          8           0        3.504906    0.867861    0.044118
     29          1           0        2.946340    1.511648    0.484784
     30          1           0        3.216127   -0.022220    0.284483
 ---------------------------------------------------------------------

 Alpha  occ. eigenvalues --  -19.18192 -19.17686 -19.17636 -19.17213 -19.16472
 Alpha  occ. eigenvalues --  -19.16227 -19.14545 -19.07483 -10.30627 -10.26571
 Alpha  occ. eigenvalues --  -10.26403 -10.26061 -10.25134 -10.24791  -1.08255
 Alpha  occ. eigenvalues --   -1.05594  -1.04921  -1.04529  -1.03687  -1.01358
 Alpha  occ. eigenvalues --   -1.00357  -0.94689  -0.79528  -0.77073  -0.71145
 Alpha  occ. eigenvalues --   -0.66867  -0.63927  -0.59224  -0.56808  -0.55964
 Alpha  occ. eigenvalues --   -0.54307  -0.53644  -0.52366  -0.51308  -0.50664
 Alpha  occ. eigenvalues --   -0.48773  -0.47424  -0.46111  -0.45361  -0.43962
 Alpha  occ. eigenvalues --   -0.42622  -0.42271  -0.41436  -0.39010  -0.38085
 Alpha  occ. eigenvalues --   -0.37394  -0.36609  -0.35628  -0.34333  -0.32118
 Alpha  occ. eigenvalues --   -0.31386  -0.31016  -0.30644  -0.29463  -0.28639
 Alpha  occ. eigenvalues --   -0.27646  -0.26941  -0.23870
 Alpha virt. eigenvalues --    0.01241   0.02169   0.03729   0.06792   0.07733
 Alpha virt. eigenvalues --    0.10029   0.10886   0.11960   0.12834   0.13807
 Alpha virt. eigenvalues --    0.15779   0.15928   0.16925   0.17427   0.18816

 Mulliken charges:
               1
     1  O   -0.610694
     2  C    0.069498
     3  C    0.118715
     4  C    0.059043
     5  C    0.299725
     6  C    0.098916
     7  H    0.148196
     8  H    0.086705
     9  H    0.132183
    10  H    0.203528
    11  C   -0.068620
    12  H    0.144596
    13  H    0.197891
    14  O   -0.621491
    15  H    0.395894
    16  O   -0.645840
    17  H    0.424391
    18  O   -0.621244
    19  H    0.410622
    20  O   -0.620026
    21  H    0.390022
    22  H    0.158915
    23  O   -0.638371
    24  H    0.467858
    25  O   -0.816293
    26  H    0.392273
    27  H    0.459624
    28  O   -0.828285
    29  H    0.391758
    30  H    0.420510
 Sum of Mulliken charges =  -0.00000

 Dipole moment (field-independent basis, Debye):
    X=             -6.5242    Y=              1.8490    Z=              3.2151  Tot=              7.5047
 Quadrupole moment (field-independent basis, Debye-Ang):
   XX=            -95.4574   YY=            -88.2841   ZZ=            -77.9640
   XY=            -10.8866   XZ=             -2.4299   YZ=              3.6513

  Exact polarizability:   0.000   0.000   0.000   0.000   0.000   0.000
 Approx polarizability: 140.302  -6.661 141.258  -6.371  -3.087 124.146

 Normal termination of Gaussian 09 at Sat Jan 14 01:03:52 2017.
