 Gaussian 09, Revision E.01,
 Gaussian 09:  ES64L-G09RevE.01 30-Nov-2015

 -------------------------------------
 # b3lyp/6-31g(d) irc=(calcfc,forward)
 -------------------------------------

 --------------------------------
 glo_1w_beta_ts_boat5_B3LYP_631Gd
 --------------------------------
 Symbolic Z-matrix:
 Charge =  0 Multiplicity = 1

 SCF Done:  E(RB3LYP) =  -839.941103584     A.U. after   14 cycles
 SCF Done:  E(RB3LYP) =  -839.941554208     A.U. after   11 cycles
 SCF Done:  E(RB3LYP) =  -839.942875093     A.U. after   12 cycles
 SCF Done:  E(RB3LYP) =  -839.944891657     A.U. after   12 cycles
 SCF Done:  E(RB3LYP) =  -839.947274841     A.U. after   12 cycles
 SCF Done:  E(RB3LYP) =  -839.949622145     A.U. after   12 cycles
 SCF Done:  E(RB3LYP) =  -839.951655550     A.U. after   12 cycles
 SCF Done:  E(RB3LYP) =  -839.953417858     A.U. after   11 cycles
 SCF Done:  E(RB3LYP) =  -839.955032929     A.U. after   11 cycles
 SCF Done:  E(RB3LYP) =  -839.956567324     A.U. after   11 cycles
 SCF Done:  E(RB3LYP) =  -839.958044352     A.U. after   11 cycles

                          Input orientation:
 ---------------------------------------------------------------------
 Center     Atomic      Atomic             Coordinates (Angstroms)
 Number     Number       Type             X           Y           Z
 ---------------------------------------------------------------------
      1          8           0        1.163732    0.695705   -0.494808
      2          6           0        0.531291   -1.075097    1.026859
      3          6           0       -1.265941    0.590007    0.001532
      4          6           0       -0.916379   -0.830180    0.543585
      5          6           0       -0.139634    1.568579    0.267858
      6          6           0        1.600832   -0.522164    0.084403
      7          1           0       -1.575803   -0.986244    1.411632
      8          1           0        2.506320   -0.366408    0.696977
      9          1           0        0.688845   -2.161718    1.122528
     10          1           0       -1.329342    0.516119   -1.092744
     11          6           0        1.935618   -1.499705   -1.062328
     12          1           0        2.678923   -1.029242   -1.722136
     13          1           0        1.033144   -1.682772   -1.648914
     14          1           0        0.225198    1.609969    1.296059
     15          8           0       -0.211605    2.722733   -0.380279
     16          8           0        2.375104   -2.774843   -0.599518
     17          1           0        3.237291   -2.655495   -0.170858
     18          8           0       -2.472036    1.062809    0.561712
     19          1           0       -3.187261    0.540897    0.132437
     20          8           0       -1.280566   -1.760187   -0.498747
     21          1           0       -1.114216   -2.662000   -0.177783
     22          8           0        0.739407   -0.442569    2.292523
     23          1           0        0.053214   -0.751898    2.905730
     24          8           0        2.211985    2.880157   -0.496476
     25          1           0        2.049740    1.886076   -0.552133
     26          1           0        2.447911    3.150785   -1.396548
     27          1           0        0.723662    3.113746   -0.341617
     28          8           0       -3.919323   -0.844656   -0.889808
     29          1           0       -3.081594   -1.355287   -0.902979
     30          1           0       -4.031824   -0.533878   -1.800979
 ---------------------------------------------------------------------

 Alpha  occ. eigenvalues --  -19.18624 -19.16350 -19.15786 -19.15361 -19.14538
 Alpha  occ. eigenvalues --  -19.14410 -19.13658 -19.12602 -10.29012 -10.25445
 Alpha  occ. eigenvalues --  -10.24966 -10.24063 -10.24026 -10.23434  -1.06209
 Alpha  occ. eigenvalues --   -1.05337  -1.03611  -1.02703  -1.01345  -1.00295
 Alpha  occ. eigenvalues --   -0.99666  -0.98114  -0.77587  -0.75737  -0.69110
 Alpha  occ. eigenvalues --   -0.66077  -0.61217  -0.56608  -0.55575  -0.54826
 Alpha  occ. eigenvalues --   -0.53560  -0.53274  -0.52197  -0.50631  -0.49307
 Alpha  occ. eigenvalues --   -0.48219  -0.45045  -0.44624  -0.43107  -0.42381
 Alpha  occ. eigenvalues --   -0.41360  -0.41307  -0.40242  -0.39438  -0.38111
 Alpha  occ. eigenvalues --   -0.35787  -0.35534  -0.34438  -0.33653  -0.32550
 Alpha  occ. eigenvalues --   -0.31041  -0.30393  -0.29365  -0.29254  -0.28172
 Alpha  occ. eigenvalues --   -0.26784  -0.25568  -0.25371
 Alpha virt. eigenvalues --    0.02760   0.04110   0.05595   0.06332   0.07536
 Alpha virt. eigenvalues --    0.08205   0.11187   0.12976   0.14051   0.15086
 Alpha virt. eigenvalues --    0.16093   0.16608   0.17631   0.18068   0.19053

 Mulliken charges:
               1
     1  O   -0.631670
     2  C    0.075059
     3  C    0.117837
     4  C    0.085427
     5  C    0.304582
     6  C    0.157847
     7  H    0.132860
     8  H    0.126086
     9  H    0.127677
    10  H    0.143504
    11  C   -0.067784
    12  H    0.132925
    13  H    0.167839
    14  H    0.177709
    15  O   -0.600380
    16  O   -0.615953
    17  H    0.393711
    18  O   -0.664000
    19  H    0.428185
    20  O   -0.644697
    21  H    0.409239
    22  O   -0.628656
    23  H    0.396305
    24  O   -0.820652
    25  H    0.440907
    26  H    0.392864
    27  H    0.445482
    28  O   -0.807222
    29  H    0.426062
    30  H    0.398906
 Sum of Mulliken charges =  -0.00000

 Dipole moment (field-independent basis, Debye):
    X=              1.5949    Y=             -3.4615    Z=             -1.0070  Tot=              3.9420
 Quadrupole moment (field-independent basis, Debye-Ang):
   XX=            -83.9919   YY=            -87.3914   ZZ=            -75.6768
   XY=              3.9546   XZ=              1.0212   YZ=             -8.8066

  Exact polarizability:   0.000   0.000   0.000   0.000   0.000   0.000
 Approx polarizability: 138.196  -8.641 141.455  -1.692  -1.179 124.856

 Normal termination of Gaussian 09 at Sat Jan 14 00:56:49 2017.
