 Gaussian 09, Revision E.01,
 Gaussian 09:  ES64L-G09RevE.01 30-Nov-2015

 ----------------------------------------------------------------------
 # opt=(calcfc,ts,noeigentest,maxcycle=1000,cartesian) b3lyp 6-31g(d) f
 req
 ----------------------------------------------------------------------

 -------------------------
 boat4_Alpha_B3LYP_6-31G_d
 -------------------------
 Symbolic Z-matrix:
 Charge =  0 Multiplicity = 1

 SCF Done:  E(RB3LYP) =  -839.960404715     A.U. after   14 cycles
 SCF Done:  E(RB3LYP) =  -839.960641894     A.U. after   11 cycles
 SCF Done:  E(RB3LYP) =  -839.960663316     A.U. after   11 cycles
 SCF Done:  E(RB3LYP) =  -839.960667420     A.U. after    8 cycles
 SCF Done:  E(RB3LYP) =  -839.960667593     A.U. after   10 cycles
 SCF Done:  E(RB3LYP) =  -839.960668241     A.U. after    8 cycles
 SCF Done:  E(RB3LYP) =  -839.960668183     A.U. after    7 cycles
 SCF Done:  E(RB3LYP) =  -839.960668208     A.U. after    7 cycles
 SCF Done:  E(RB3LYP) =  -839.960668226     A.U. after    7 cycles
 SCF Done:  E(RB3LYP) =  -839.960668268     A.U. after    7 cycles
 Optimization completed.
    -- Stationary point found.
 Normal termination of Gaussian 09 at Thu Jan 12 00:53:46 2017.

 --------------------------------------------------------------------
 #N Geom=AllCheck Guess=TCheck SCRF=Check GenChk RB3LYP/6-31G(d) Freq
 --------------------------------------------------------------------

 Structure from the checkpoint file:  "/scratch/10452992.yak.local/Gau-8187.chk"
 -------------------------
 boat4_Alpha_B3LYP_6-31G_d
 -------------------------
 Charge =  0 Multiplicity = 1

                         Standard orientation:
 ---------------------------------------------------------------------
 Center     Atomic      Atomic             Coordinates (Angstroms)
 Number     Number       Type             X           Y           Z
 ---------------------------------------------------------------------
      1          8           0       -1.272092    0.430987   -0.688501
      2          6           0        1.037931    0.333659   -0.160358
      3          6           0       -0.397679   -1.739982    0.447665
      4          6           0        1.004768   -1.176372    0.186605
      5          6           0       -1.502142   -1.282029   -0.501472
      6          6           0       -0.282215    1.061790    0.129254
      7          1           0        1.548910   -1.287503    1.136907
      8          1           0       -0.532403    0.966540    1.194856
      9          1           0        1.206601    0.408568   -1.245375
     10          6           0       -0.245493    2.539568   -0.291216
     11          1           0       -0.001117    2.607480   -1.354918
     12          1           0       -1.232410    3.001535   -0.144115
     13          1           0       -0.318978   -2.831156    0.310857
     14          8           0        0.769244    3.286105    0.393276
     15          1           0        0.517359    3.350495    1.328881
     16          8           0       -0.787831   -1.418182    1.772232
     17          1           0       -1.763393   -1.500993    1.742019
     18          8           0        1.584431   -1.954656   -0.841106
     19          1           0        2.527576   -1.677038   -0.900918
     20          8           0        2.133860    0.919749    0.557941
     21          1           0        2.061733    1.889531    0.445408
     22          1           0       -1.328028   -1.512965   -1.558927
     23          8           0       -2.700097   -1.456594   -0.013887
     24          8           0       -3.637551    0.671824   -0.552873
     25          1           0       -3.442495   -0.434978   -0.346203
     26          1           0       -2.431347    0.794851   -0.592656
     27          1           0       -3.986065    1.045380    0.273419
     28          8           0        4.078506   -0.735816   -0.532981
     29          1           0        4.537918   -1.188900    0.190193
     30          1           0        3.597349    0.002010   -0.095101
 ---------------------------------------------------------------------

 SCF Done:  E(RB3LYP) =  -839.960668268     A.U. after    1 cycles

 The electronic state is 1-A.
 Alpha  occ. eigenvalues --  -19.19183 -19.18076 -19.17911 -19.16315 -19.14507
 Alpha  occ. eigenvalues --  -19.13940 -19.12499 -19.12119 -10.29085 -10.26156
 Alpha  occ. eigenvalues --  -10.25724 -10.24381 -10.23399 -10.23266  -1.07205
 Alpha  occ. eigenvalues --   -1.06040  -1.03495  -1.02657  -1.01453  -1.00458
 Alpha  occ. eigenvalues --   -0.99579  -0.98951  -0.77978  -0.75713  -0.69919
 Alpha  occ. eigenvalues --   -0.64691  -0.62827  -0.57063  -0.56393  -0.55284
 Alpha  occ. eigenvalues --   -0.53704  -0.52779  -0.51986  -0.51176  -0.49749
 Alpha  occ. eigenvalues --   -0.48235  -0.46097  -0.45279  -0.44821  -0.43606
 Alpha  occ. eigenvalues --   -0.42711  -0.40437  -0.39737  -0.39180  -0.38419
 Alpha  occ. eigenvalues --   -0.37691  -0.36351  -0.35464  -0.34737  -0.33369
 Alpha  occ. eigenvalues --   -0.31093  -0.30767  -0.29514  -0.28897  -0.28178
 Alpha  occ. eigenvalues --   -0.26703  -0.25613  -0.24890
 Alpha virt. eigenvalues --    0.02212   0.04414   0.04888   0.07158   0.09957
 Alpha virt. eigenvalues --    0.10603   0.10915   0.12468   0.14147   0.14641
 Alpha virt. eigenvalues --    0.15298   0.16669   0.17064   0.17622   0.18767

 Mulliken charges:
               1
     1  O   -0.656911
     2  C    0.112162
     3  C    0.084749
     4  C    0.121666
     5  C    0.333481
     6  C    0.097710
     7  H    0.141598
     8  H    0.146535
     9  H    0.143963
    10  C   -0.071751
    11  H    0.176948
    12  H    0.141963
    13  H    0.159475
    14  O   -0.617693
    15  H    0.407390
    16  O   -0.656133
    17  H    0.403079
    18  O   -0.677637
    19  H    0.427938
    20  O   -0.686143
    21  H    0.424111
    22  H    0.157124
    23  O   -0.659996
    24  O   -0.812923
    25  H    0.467725
    26  H    0.470919
    27  H    0.405976
    28  O   -0.810149
    29  H    0.395362
    30  H    0.429459
 Sum of Mulliken charges =  -0.00000

 Dipole moment (field-independent basis, Debye):
    X=             -1.0348    Y=              4.0819    Z=              2.8676  Tot=              5.0947
 Quadrupole moment (field-independent basis, Debye-Ang):
   XX=            -81.8886   YY=            -83.2313   ZZ=            -86.2618
   XY=             -6.6351   XZ=              0.6052   YZ=              3.9908

  Exact polarizability: 113.513  -2.352 102.305  -0.274   2.395  79.886
 Approx polarizability: 146.158   0.599 137.244  -1.569   4.562 125.318

 ******    1 imaginary frequencies (negative Signs) ******

                      1                      2                      3
                      A                      A                      A
 Frequencies --  -1358.5141                37.1640                51.2138
 Red. masses --      1.1421                 5.8665                 6.4800
 Frc consts  --      1.2418                 0.0048                 0.0100
 IR Inten    --    276.1257                 1.4576                 1.0772

                      4                      5                      6
                      A                      A                      A
 Frequencies --     73.9445                91.5932               104.8489
 Red. masses --      5.8081                 5.0753                 5.9621
 Frc consts  --      0.0187                 0.0251                 0.0386
 IR Inten    --      2.5299                 1.0527                10.4040

                      7                      8                      9
                      A                      A                      A
 Frequencies --    161.7854               172.9121               186.4941
 Red. masses --      5.0059                 2.8698                 6.3353
 Frc consts  --      0.0772                 0.0506                 0.1298
 IR Inten    --     19.1742                 3.8350                 0.7877

                     10                     11                     12
                      A                      A                      A
 Frequencies --    215.1416               236.5099               281.1404
 Red. masses --      5.0335                 6.9372                 4.5979
 Frc consts  --      0.1373                 0.2286                 0.2141
 IR Inten    --      7.5432                13.9509                11.4038

                     13                     14                     15
                      A                      A                      A
 Frequencies --    302.7273               303.5368               329.7530
 Red. masses --      1.2740                 3.6254                 2.1607
 Frc consts  --      0.0688                 0.1968                 0.1384
 IR Inten    --    149.6413                13.9738                53.0845

                     16                     17                     18
                      A                      A                      A
 Frequencies --    342.3980               368.0030               380.6812
 Red. masses --      3.0581                 2.2156                 3.1387
 Frc consts  --      0.2112                 0.1768                 0.2680
 IR Inten    --     60.4306                70.9483                62.8925

                     19                     20                     21
                      A                      A                      A
 Frequencies --    390.4515               415.5121               426.9612
 Red. masses --      1.3305                 5.3556                 5.2744
 Frc consts  --      0.1195                 0.5448                 0.5665
 IR Inten    --     14.8745                35.9981                 2.8928

                     22                     23                     24
                      A                      A                      A
 Frequencies --    483.9042               511.3947               522.3941
 Red. masses --      4.3395                 2.7219                 1.8831
 Frc consts  --      0.5987                 0.4194                 0.3028
 IR Inten    --      1.4016                83.3581                80.9866

                     25                     26                     27
                      A                      A                      A
 Frequencies --    533.4460               556.8347               583.3131
 Red. masses --      2.7264                 3.5490                 2.1013
 Frc consts  --      0.4571                 0.6484                 0.4213
 IR Inten    --     34.6050               187.2264                31.2250

                     28                     29                     30
                      A                      A                      A
 Frequencies --    618.1057               642.2191               683.7105
 Red. masses --      1.3192                 1.5867                 1.1439
 Frc consts  --      0.2970                 0.3856                 0.3151
 IR Inten    --    189.4305                36.5473                11.5339

                     31                     32                     33
                      A                      A                      A
 Frequencies --    710.1656               738.0206               781.9065
 Red. masses --      4.1246                 4.4298                 1.0831
 Frc consts  --      1.2256                 1.4216                 0.3901
 IR Inten    --     17.3962                30.6735               262.1393

                     34                     35                     36
                      A                      A                      A
 Frequencies --    818.9240               843.9218               868.5200
 Red. masses --      4.3818                 1.1638                 2.4942
 Frc consts  --      1.7314                 0.4884                 1.1085
 IR Inten    --     39.2477               201.2834                53.2180

                     37                     38                     39
                      A                      A                      A
 Frequencies --    913.9660              1000.5048              1034.3973
 Red. masses --      1.9417                 2.5382                 2.9415
 Frc consts  --      0.9556                 1.4969                 1.8543
 IR Inten    --     14.7099                91.4503               100.1011

                     40                     41                     42
                      A                      A                      A
 Frequencies --   1049.0790              1065.6760              1087.6583
 Red. masses --      3.8085                 4.8018                 4.4556
 Frc consts  --      2.4695                 3.2129                 3.1056
 IR Inten    --    119.0305               106.8735               134.7357

                     43                     44                     45
                      A                      A                      A
 Frequencies --   1107.4039              1117.2029              1132.5061
 Red. masses --      3.7592                 1.9581                 3.5075
 Frc consts  --      2.7162                 1.4400                 2.6505
 IR Inten    --     74.9123                12.6000                67.0014

                     46                     47                     48
                      A                      A                      A
 Frequencies --   1146.4167              1203.7527              1215.6106
 Red. masses --      2.8256                 1.3418                 1.2268
 Frc consts  --      2.1880                 1.1455                 1.0681
 IR Inten    --      9.0647                37.6729               482.4895

                     49                     50                     51
                      A                      A                      A
 Frequencies --   1244.7083              1285.0171              1296.8369
 Red. masses --      1.1518                 1.4007                 1.2519
 Frc consts  --      1.0514                 1.3628                 1.2405
 IR Inten    --    234.2732              1149.3896               166.9275

                     52                     53                     54
                      A                      A                      A
 Frequencies --   1303.1357              1311.0169              1331.9860
 Red. masses --      1.1820                 1.1724                 1.2409
 Frc consts  --      1.1826                 1.1873                 1.2971
 IR Inten    --     75.7630                63.2601                73.0809

                     55                     56                     57
                      A                      A                      A
 Frequencies --   1348.8605              1362.9723              1384.2843
 Red. masses --      1.2388                 1.1777                 1.2718
 Frc consts  --      1.3280                 1.2890                 1.4359
 IR Inten    --    157.8582               788.5618                22.1340

                     58                     59                     60
                      A                      A                      A
 Frequencies --   1384.5691              1403.9615              1415.9722
 Red. masses --      1.2625                 1.3056                 1.2955
 Frc consts  --      1.4259                 1.5163                 1.5304
 IR Inten    --     38.3811                70.7834                23.2932

                     61                     62                     63
                      A                      A                      A
 Frequencies --   1438.3698              1463.6911              1470.3991
 Red. masses --      1.3378                 1.4317                 1.3952
 Frc consts  --      1.6308                 1.8071                 1.7773
 IR Inten    --     53.8222                37.0224                44.0748

                     64                     65                     66
                      A                      A                      A
 Frequencies --   1510.9201              1518.5242              1534.2353
 Red. masses --      2.1062                 1.4057                 1.1139
 Frc consts  --      2.8329                 1.9098                 1.5448
 IR Inten    --    108.5617                35.2508                13.1519

                     67                     68                     69
                      A                      A                      A
 Frequencies --   1621.1463              1712.1503              1730.2448
 Red. masses --      1.0759                 1.1207                 1.0751
 Frc consts  --      1.6660                 1.9356                 1.8963
 IR Inten    --   1060.0527               594.4685                49.3273

                     70                     71                     72
                      A                      A                      A
 Frequencies --   1981.4250              3000.5693              3012.3783
 Red. masses --      1.0229                 1.0823                 1.0829
 Frc consts  --      2.3662                 5.7413                 5.7899
 IR Inten    --    233.2787                29.3737                 7.0365

                     73                     74                     75
                      A                      A                      A
 Frequencies --   3017.6497              3031.1061              3047.8247
 Red. masses --      1.0841                 1.0708                 1.0841
 Frc consts  --      5.8163                 5.7964                 5.9333
 IR Inten    --     32.4908                63.5288                29.0074

                     76                     77                     78
                      A                      A                      A
 Frequencies --   3080.2455              3127.7490              3469.0735
 Red. masses --      1.0895                 1.0973                 1.0647
 Frc consts  --      6.0902                 6.3249                 7.5496
 IR Inten    --     46.1632                20.2320               193.5807

                     79                     80                     81
                      A                      A                      A
 Frequencies --   3535.9475              3594.3006              3595.4710
 Red. masses --      1.0608                 1.0647                 1.0643
 Frc consts  --      7.8144                 8.1039                 8.1066
 IR Inten    --    750.8943               126.1197                92.1489

                     82                     83                     84
                      A                      A                      A
 Frequencies --   3734.6692              3764.9260              3796.9062
 Red. masses --      1.0662                 1.0650                 1.0698
 Frc consts  --      8.7617                 8.8944                 9.0871
 IR Inten    --     26.0571                41.2004                64.8782

 - Thermochemistry -
 -------------------
 Temperature   298.150 Kelvin.  Pressure   1.00000 Atm.
 Atom     1 has atomic number  8 and mass  15.99491

 Molecular mass:   216.08452 amu.
 Principal axes and moments of inertia in atomic units:
                           1         2         3
     Eigenvalues --  2349.733303594.152275168.51121
           X            0.99969  -0.02489   0.00010
           Y            0.02489   0.99969   0.00143
           Z           -0.00014  -0.00142   1.00000
 This molecule is an asymmetric top.
 Rotational symmetry number  1.
 Warning -- assumption of classical behavior for rotation
           may cause significant error
 Rotational temperatures (Kelvin)      0.03686     0.02410     0.01676
 Rotational constants (GHZ):           0.76806     0.50213     0.34918
    1 imaginary frequencies ignored.
 Zero-point vibrational energy     638249.4 (Joules/Mol)
                                  152.54527 (Kcal/Mol)
 Warning -- explicit consideration of  27 degrees of freedom as
           vibrations may cause significant error
 Vibrational temperatures:     53.47    73.69   106.39   131.78   150.85
          (Kelvin)            232.77   248.78   268.32   309.54   340.28
                              404.50   435.56   436.72   474.44   492.63
                              529.47   547.71   561.77   597.83   614.30
                              696.23   735.78   751.61   767.51   801.16
                              839.26   889.32   924.01   983.71  1021.77
                             1061.85  1124.99  1178.25  1214.21  1249.60
                             1314.99  1439.50  1488.27  1509.39  1533.27
                             1564.90  1593.31  1607.40  1629.42  1649.44
                             1731.93  1748.99  1790.86  1848.85  1865.86
                             1874.92  1886.26  1916.43  1940.71  1961.01
                             1991.67  1992.08  2019.98  2037.27  2069.49
                             2105.92  2115.57  2173.87  2184.81  2207.42
                             2332.47  2463.40  2489.43  2850.83  4317.14
                             4334.14  4341.72  4361.08  4385.13  4431.78
                             4500.13  4991.22  5087.43  5171.39  5173.07
                             5373.35  5416.88  5462.89

 Zero-point correction=                           0.243096 (Hartree/Particle)
 Thermal correction to Energy=                    0.258934
 Thermal correction to Enthalpy=                  0.259879
 Thermal correction to Gibbs Free Energy=         0.200374
 Sum of electronic and zero-point Energies=           -839.717572
 Sum of electronic and thermal Energies=              -839.701734
 Sum of electronic and thermal Enthalpies=            -839.700790
 Sum of electronic and thermal Free Energies=         -839.760294

                     E (Thermal)             CV                S
                      KCal/Mol        Cal/Mol-Kelvin    Cal/Mol-Kelvin
 Total                  162.484             60.263            125.238
 Electronic               0.000              0.000              0.000
 Translational            0.889              2.981             42.015
 Rotational               0.889              2.981             32.146
 Vibrational            160.706             54.301             51.077
 Vibration     1          0.594              1.982              5.405
 Vibration     2          0.595              1.977              4.770
 Vibration     3          0.599              1.966              4.046
 Vibration     4          0.602              1.955              3.626
 Vibration     5          0.605              1.945              3.362
 Vibration     6          0.622              1.889              2.529
 Vibration     7          0.626              1.876              2.404
 Vibration     8          0.632              1.858              2.262
 Vibration     9          0.645              1.818              2.000
 Vibration    10          0.655              1.785              1.829
 Vibration    11          0.681              1.709              1.527
 Vibration    12          0.694              1.669              1.402
 Vibration    13          0.695              1.667              1.397
 Vibration    14          0.713              1.616              1.261
 Vibration    15          0.722              1.591              1.201
 Vibration    16          0.741              1.538              1.088
 Vibration    17          0.750              1.511              1.036
 Vibration    18          0.758              1.491              0.998
 Vibration    19          0.779              1.437              0.907
 Vibration    20          0.789              1.412              0.869
 Vibration    21          0.840              1.286              0.700
 Vibration    22          0.867              1.225              0.630
 Vibration    23          0.877              1.200              0.604
 Vibration    24          0.888              1.176              0.580
 Vibration    25          0.912              1.125              0.530
 Vibration    26          0.940              1.067              0.479
 Vibration    27          0.978              0.994              0.420

 Optimization completed.
    -- Stationary point found.
 Normal termination of Gaussian 09 at Thu Jan 12 01:13:30 2017.
