 Gaussian 09, Revision E.01,
 Gaussian 09:  ES64L-G09RevE.01 30-Nov-2015

 ----------------------------------------------------------------------
 # opt=(calcfc,ts,noeigentest,maxcycle=1000,cartesian) b3lyp 6-31g(d) f
 req
 ----------------------------------------------------------------------

 -------------------------------------------
 ./5/glo_1w_alpha_boat5_b3lyp_631Gd_iopt.out
 -------------------------------------------
 Symbolic Z-matrix:
 Charge =  0 Multiplicity = 1

 SCF Done:  E(RB3LYP) =  -839.986361012     A.U. after   14 cycles
 SCF Done:  E(RB3LYP) =  -839.986361019     A.U. after    7 cycles
 Optimization completed.
    -- Stationary point found.
 Normal termination of Gaussian 09 at Tue Jan 31 07:18:51 2017.

 --------------------------------------------------------------------
 #N Geom=AllCheck Guess=TCheck SCRF=Check GenChk RB3LYP/6-31G(d) Freq
 --------------------------------------------------------------------

 Structure from the checkpoint file:  "/scratch/10501390.yak.local/Gau-10886.chk"
 -------------------------------------------
 ./5/glo_1w_alpha_boat5_b3lyp_631Gd_iopt.out
 -------------------------------------------
 Charge =  0 Multiplicity = 1

                         Standard orientation:
 ---------------------------------------------------------------------
 Center     Atomic      Atomic             Coordinates (Angstroms)
 Number     Number       Type             X           Y           Z
 ---------------------------------------------------------------------
      1          8           0       -1.530854   -0.413887   -0.696388
      2          6           0       -0.244028    0.837426    1.035543
      3          6           0        0.898562   -0.372871   -0.930240
      4          6           0        1.098177    0.487329    0.329498
      5          6           0       -0.358962   -1.230478   -0.796560
      6          6           0       -1.441992    0.812447    0.076416
      7          1           0        1.686392   -0.082523    1.060042
      8          1           0       -2.348488    0.835664    0.696023
      9          1           0       -0.182563    1.858067    1.430126
     10          1           0        0.730940    0.301614   -1.775755
     11          6           0       -1.481815    2.015812   -0.881424
     12          1           0       -2.261460    1.840353   -1.636785
     13          1           0       -0.527812    2.135037   -1.400681
     14          8           0       -1.684547    3.233512   -0.173995
     15          1           0       -2.586918    3.224817    0.182188
     16          8           0        2.031670   -1.137460   -1.284423
     17          1           0        2.368331   -1.584300   -0.488617
     18          8           0        1.840007    1.634329   -0.099216
     19          1           0        1.964933    2.211791    0.671148
     20          8           0       -0.462632   -0.007823    2.154341
     21          1           0       -0.398619   -0.920184    1.803689
     22          1           0       -0.513220   -1.821774   -1.704706
     23          8           0       -0.217191   -2.083922    0.320829
     24          1           0       -1.029854   -2.645586    0.338093
     25          8           0        4.149396   -0.478036    0.422967
     26          1           0        4.503232    0.090559    1.122625
     27          1           0        3.726701    0.136264   -0.201254
     28          8           0       -2.856842   -2.784589    0.122520
     29          1           0       -3.285968   -2.707477    0.988647
     30          1           0       -2.817348   -1.867309   -0.217252
 ---------------------------------------------------------------------

 SCF Done:  E(RB3LYP) =  -839.986361019     A.U. after    1 cycles

 The electronic state is 1-A.
 Alpha  occ. eigenvalues --  -19.17810 -19.16847 -19.16623 -19.16448 -19.15982
 Alpha  occ. eigenvalues --  -19.14667 -19.13825 -19.13615 -10.29469 -10.25054
 Alpha  occ. eigenvalues --  -10.24492 -10.24394 -10.24356 -10.24018  -1.08222
 Alpha  occ. eigenvalues --   -1.04021  -1.03213  -1.02522  -1.02136  -1.01195
 Alpha  occ. eigenvalues --   -1.01028  -0.99543  -0.78408  -0.77213  -0.69231
 Alpha  occ. eigenvalues --   -0.66011  -0.63755  -0.58726  -0.55606  -0.54285
 Alpha  occ. eigenvalues --   -0.53921  -0.52425  -0.51813  -0.50797  -0.49045
 Alpha  occ. eigenvalues --   -0.48828  -0.46342  -0.45055  -0.43546  -0.42542
 Alpha  occ. eigenvalues --   -0.41949  -0.41740  -0.39818  -0.38976  -0.37871
 Alpha  occ. eigenvalues --   -0.37139  -0.36161  -0.35511  -0.34328  -0.32290
 Alpha  occ. eigenvalues --   -0.31871  -0.30662  -0.30345  -0.29823  -0.29185
 Alpha  occ. eigenvalues --   -0.27626  -0.26390  -0.25649
 Alpha virt. eigenvalues --    0.04518   0.04826   0.05752   0.08191   0.09491
 Alpha virt. eigenvalues --    0.09742   0.11261   0.12475   0.13292   0.13974
 Alpha virt. eigenvalues --    0.14162   0.15485   0.16240   0.18005   0.18158

 Mulliken charges:
               1
     1  O   -0.542275
     2  C    0.103612
     3  C    0.116563
     4  C    0.058076
     5  C    0.292193
     6  C    0.095807
     7  H    0.153078
     8  H    0.126675
     9  H    0.148401
    10  H    0.162715
    11  C   -0.064853
    12  H    0.139187
    13  H    0.175502
    14  O   -0.610335
    15  H    0.392613
    16  O   -0.633275
    17  H    0.419646
    18  O   -0.639587
    19  H    0.397731
    20  O   -0.665697
    21  H    0.411765
    22  H    0.158976
    23  O   -0.661589
    24  H    0.432053
    25  O   -0.796147
    26  H    0.386063
    27  H    0.413470
    28  O   -0.795305
    29  H    0.402218
    30  H    0.422719
 Sum of Mulliken charges =  -0.00000

 Dipole moment (field-independent basis, Debye):
    X=             -2.8959    Y=              1.9028    Z=              1.9432  Tot=              3.9728
 Quadrupole moment (field-independent basis, Debye-Ang):
   XX=            -75.2056   YY=            -88.4372   ZZ=            -86.5708
   XY=              5.5564   XZ=              3.7332   YZ=             -0.5366

  Exact polarizability:  98.823  -1.483  97.487  -0.192   2.075  83.802
 Approx polarizability: 126.171  -1.778 132.870  -1.311   1.717 125.348

 ******    1 imaginary frequencies (negative Signs) ******

                      1                      2                      3
                      A                      A                      A
 Frequencies --   -170.7192                40.9453                42.7801
 Red. masses --      1.2096                 5.0166                 5.4298
 Frc consts  --      0.0208                 0.0050                 0.0059
 IR Inten    --    123.4164                 3.9581                 4.0736

                      4                      5                      6
                      A                      A                      A
 Frequencies --     71.0934                74.2085                92.6289
 Red. masses --      5.7563                 5.7362                 3.6044
 Frc consts  --      0.0171                 0.0186                 0.0182
 IR Inten    --      2.1656                 0.7960                10.9829

                      7                      8                      9
                      A                      A                      A
 Frequencies --    128.2959               134.6181               140.8891
 Red. masses --      5.1319                 2.9072                 2.4686
 Frc consts  --      0.0498                 0.0310                 0.0289
 IR Inten    --     33.6813                10.2616                88.9312

                     10                     11                     12
                      A                      A                      A
 Frequencies --    156.4991               183.1755               184.0204
 Red. masses --      1.6799                 5.2356                 3.7538
 Frc consts  --      0.0242                 0.1035                 0.0749
 IR Inten    --     53.2750                10.1080                 5.0316

                     13                     14                     15
                      A                      A                      A
 Frequencies --    238.4806               245.6426               280.5864
 Red. masses --      6.0824                 4.8588                 3.0550
 Frc consts  --      0.2038                 0.1727                 0.1417
 IR Inten    --      4.8694                 8.7452                 7.3557

                     16                     17                     18
                      A                      A                      A
 Frequencies --    289.9765               293.3769               316.0090
 Red. masses --      1.6447                 2.9588                 2.2395
 Frc consts  --      0.0815                 0.1500                 0.1318
 IR Inten    --    108.3056                40.0094                52.6461

                     19                     20                     21
                      A                      A                      A
 Frequencies --    337.7684               357.9987               374.3601
 Red. masses --      1.6963                 2.8232                 1.2677
 Frc consts  --      0.1140                 0.2132                 0.1047
 IR Inten    --     73.5776                34.8795               256.1010

                     22                     23                     24
                      A                      A                      A
 Frequencies --    382.1536               394.4373               417.8280
 Red. masses --      1.2203                 1.3365                 3.1160
 Frc consts  --      0.1050                 0.1225                 0.3205
 IR Inten    --     45.4127               140.0204                95.0897

                     25                     26                     27
                      A                      A                      A
 Frequencies --    454.2877               497.0564               519.8129
 Red. masses --      3.9582                 5.0261                 5.1863
 Frc consts  --      0.4813                 0.7316                 0.8257
 IR Inten    --     26.7818                19.2485                 6.8244

                     28                     29                     30
                      A                      A                      A
 Frequencies --    562.6524               596.1596               601.6389
 Red. masses --      4.1993                 1.5933                 1.7972
 Frc consts  --      0.7833                 0.3336                 0.3833
 IR Inten    --     44.4454               103.5123                12.8927

                     31                     32                     33
                      A                      A                      A
 Frequencies --    620.7749               661.9349               694.1307
 Red. masses --      1.1370                 1.2833                 3.0958
 Frc consts  --      0.2582                 0.3313                 0.8788
 IR Inten    --     65.5478               253.5471                27.2560

                     34                     35                     36
                      A                      A                      A
 Frequencies --    808.5023               823.6476               877.5612
 Red. masses --      4.2630                 2.7024                 1.2132
 Frc consts  --      1.6418                 1.0802                 0.5505
 IR Inten    --     82.8037                 7.1834                74.1395

                     37                     38                     39
                      A                      A                      A
 Frequencies --    904.2033               970.7517               990.8578
 Red. masses --      2.9185                 3.1036                 2.1509
 Frc consts  --      1.4059                 1.7232                 1.2442
 IR Inten    --     37.0293                35.1297                17.4397

                     40                     41                     42
                      A                      A                      A
 Frequencies --   1009.0170              1051.2328              1074.1414
 Red. masses --      3.7500                 2.7923                 4.0857
 Frc consts  --      2.2495                 1.8181                 2.7774
 IR Inten    --     66.2972                28.8190               215.7677

                     43                     44                     45
                      A                      A                      A
 Frequencies --   1091.0384              1092.9243              1108.8798
 Red. masses --      3.5648                 5.0991                 3.4975
 Frc consts  --      2.5001                 3.5886                 2.5338
 IR Inten    --     33.4210                97.8584                37.4535

                     46                     47                     48
                      A                      A                      A
 Frequencies --   1122.3474              1140.9501              1160.9137
 Red. masses --      2.3317                 3.8741                 2.7973
 Frc consts  --      1.7305                 2.9713                 2.2212
 IR Inten    --     78.0113                75.9195                70.2400

                     49                     50                     51
                      A                      A                      A
 Frequencies --   1202.1967              1223.0068              1281.3391
 Red. masses --      1.3294                 1.1438                 1.4617
 Frc consts  --      1.1320                 1.0080                 1.4140
 IR Inten    --     19.8973                52.8651                 8.1945

                     52                     53                     54
                      A                      A                      A
 Frequencies --   1313.1219              1324.2718              1335.5626
 Red. masses --      1.1774                 1.4005                 1.2856
 Frc consts  --      1.1961                 1.4470                 1.3511
 IR Inten    --      8.9194                56.3582                11.5380

                     55                     56                     57
                      A                      A                      A
 Frequencies --   1349.9653              1362.6990              1372.1603
 Red. masses --      1.2378                 1.2598                 1.2544
 Frc consts  --      1.3291                 1.3783                 1.3916
 IR Inten    --      5.6565                 1.0698                 5.0627

                     58                     59                     60
                      A                      A                      A
 Frequencies --   1401.3540              1407.2697              1422.8464
 Red. masses --      1.3071                 1.3728                 1.2445
 Frc consts  --      1.5124                 1.6018                 1.4845
 IR Inten    --     29.8464                10.2536                 8.6528

                     61                     62                     63
                      A                      A                      A
 Frequencies --   1436.6360              1454.0756              1469.4051
 Red. masses --      1.2513                 1.3093                 1.3505
 Frc consts  --      1.5217                 1.6311                 1.7180
 IR Inten    --     42.0086                10.8360                29.6572

                     64                     65                     66
                      A                      A                      A
 Frequencies --   1502.0993              1532.6780              1535.8836
 Red. masses --      1.2042                 1.1010                 1.3278
 Frc consts  --      1.6009                 1.5239                 1.8454
 IR Inten    --     48.8760                 0.9071                64.7288

                     67                     68                     69
                      A                      A                      A
 Frequencies --   1694.1711              1727.0734              3030.7223
 Red. masses --      1.0846                 1.0755                 1.0722
 Frc consts  --      1.8342                 1.8902                 5.8026
 IR Inten    --     70.1953                48.5035                48.5593

                     70                     71                     72
                      A                      A                      A
 Frequencies --   3039.5344              3050.0268              3078.4987
 Red. masses --      1.0838                 1.0850                 1.0860
 Frc consts  --      5.8996                 5.9467                 6.0640
 IR Inten    --     41.5403                11.3015                26.8142

                     73                     74                     75
                      A                      A                      A
 Frequencies --   3092.8561              3101.4850              3139.6288
 Red. masses --      1.0864                 1.0872                 1.0951
 Frc consts  --      6.1229                 6.1619                 6.3600
 IR Inten    --     23.8984                32.4104                17.4162

                     76                     77                     78
                      A                      A                      A
 Frequencies --   3439.9137              3581.2558              3610.8024
 Red. masses --      1.0664                 1.0652                 1.0544
 Frc consts  --      7.4344                 8.0490                 8.0993
 IR Inten    --    448.5857               148.4998               264.9382

                     79                     80                     81
                      A                      A                      A
 Frequencies --   3705.0443              3718.5679              3732.3635
 Red. masses --      1.0483                 1.0646                 1.0662
 Frc consts  --      8.4788                 8.6737                 8.7508
 IR Inten    --     11.5256                76.0438                14.4700

                     82                     83                     84
                      A                      A                      A
 Frequencies --   3737.5652              3800.1391              3829.9746
 Red. masses --      1.0662                 1.0734                 1.0801
 Frc consts  --      8.7757                 9.1329                 9.3352
 IR Inten    --     14.5803                77.2923                51.7784

 - Thermochemistry -
 -------------------
 Temperature   298.150 Kelvin.  Pressure   1.00000 Atm.
 Atom     1 has atomic number  8 and mass  15.99491

 Molecular mass:   216.08452 amu.
 Principal axes and moments of inertia in atomic units:
                           1         2         3
     Eigenvalues --  2667.177583402.261924810.86544
           X            0.99980   0.01867   0.00697
           Y           -0.01863   0.99981  -0.00552
           Z           -0.00707   0.00539   0.99996
 This molecule is an asymmetric top.
 Rotational symmetry number  1.
 Warning -- assumption of classical behavior for rotation
           may cause significant error
 Rotational temperatures (Kelvin)      0.03247     0.02546     0.01800
 Rotational constants (GHZ):           0.67665     0.53045     0.37514
    1 imaginary frequencies ignored.
 Zero-point vibrational energy     649867.6 (Joules/Mol)
                                  155.32209 (Kcal/Mol)
 Warning -- explicit consideration of  30 degrees of freedom as
           vibrations may cause significant error
 Vibrational temperatures:     58.91    61.55   102.29   106.77   133.27
          (Kelvin)            184.59   193.69   202.71   225.17   263.55
                              264.76   343.12   353.42   403.70   417.21
                              422.10   454.67   485.97   515.08   538.62
                              549.83   567.51   601.16   653.62   715.15
                              747.89   809.53   857.74   865.62   893.16
                              952.38   998.70  1163.25  1185.04  1262.61
                             1300.95  1396.69  1425.62  1451.75  1512.49
                             1545.45  1569.76  1572.47  1595.43  1614.81
                             1641.57  1670.29  1729.69  1759.63  1843.56
                             1889.29  1905.33  1921.57  1942.30  1960.62
                             1974.23  2016.23  2024.74  2047.16  2067.00
                             2092.09  2114.14  2161.18  2205.18  2209.79
                             2437.53  2484.87  4360.53  4373.21  4388.30
                             4429.27  4449.92  4462.34  4517.22  4949.26
                             5152.62  5195.13  5330.73  5350.18  5370.03
                             5377.52  5467.55  5510.47

 Zero-point correction=                           0.247522 (Hartree/Particle)
 Thermal correction to Energy=                    0.265222
 Thermal correction to Enthalpy=                  0.266166
 Thermal correction to Gibbs Free Energy=         0.202410
 Sum of electronic and zero-point Energies=           -839.738840
 Sum of electronic and thermal Energies=              -839.721139
 Sum of electronic and thermal Enthalpies=            -839.720195
 Sum of electronic and thermal Free Energies=         -839.783951

                     E (Thermal)             CV                S
                      KCal/Mol        Cal/Mol-Kelvin    Cal/Mol-Kelvin
 Total                  166.429             64.128            134.185
 Electronic               0.000              0.000              0.000
 Translational            0.889              2.981             42.015
 Rotational               0.889              2.981             32.146
 Vibrational            164.652             58.167             60.024
 Vibration     1          0.594              1.981              5.213
 Vibration     2          0.595              1.980              5.126
 Vibration     3          0.598              1.968              4.123
 Vibration     4          0.599              1.966              4.039
 Vibration     5          0.602              1.954              3.604
 Vibration     6          0.611              1.925              2.971
 Vibration     7          0.613              1.919              2.879
 Vibration     8          0.615              1.912              2.792
 Vibration     9          0.620              1.895              2.592
 Vibration    10          0.631              1.863              2.296
 Vibration    11          0.631              1.862              2.287
 Vibration    12          0.656              1.782              1.814
 Vibration    13          0.660              1.770              1.762
 Vibration    14          0.680              1.710              1.530
 Vibration    15          0.686              1.692              1.474
 Vibration    16          0.688              1.686              1.454
 Vibration    17          0.703              1.643              1.331
 Vibration    18          0.718              1.600              1.223
 Vibration    19          0.733              1.559              1.131
 Vibration    20          0.745              1.525              1.062
 Vibration    21          0.752              1.508              1.031
 Vibration    22          0.761              1.482              0.983
 Vibration    23          0.781              1.432              0.899
 Vibration    24          0.813              1.351              0.783
 Vibration    25          0.853              1.257              0.666
 Vibration    26          0.875              1.206              0.610
 Vibration    27          0.918              1.112              0.519
 Vibration    28          0.954              1.040              0.456
 Vibration    29          0.960              1.028              0.447
 Vibration    30          0.981              0.988              0.415

 Optimization completed.
    -- Stationary point found.
 Normal termination of Gaussian 09 at Tue Jan 31 07:37:45 2017.
