 Gaussian 09, Revision E.01,
 Gaussian 09:  ES64L-G09RevE.01 30-Nov-2015

 ----------------------------------------------------------------------
 # opt=(calcfc,ts,noeigentest,maxcycle=1000,cartesian) b3lyp 6-31g(d) f
 req
 ----------------------------------------------------------------------

 ------------------------------------------
 ./5/glo_1w_beta_boat5_b3lyp_631Gd_iopt.out
 ------------------------------------------
 Symbolic Z-matrix:
 Charge =  0 Multiplicity = 1

 SCF Done:  E(RB3LYP) =  -839.980838149     A.U. after   14 cycles
 Optimization completed.
    -- Stationary point found.
 Normal termination of Gaussian 09 at Tue Jan 31 07:15:19 2017.

 --------------------------------------------------------------------
 #N Geom=AllCheck Guess=TCheck SCRF=Check GenChk RB3LYP/6-31G(d) Freq
 --------------------------------------------------------------------

 Structure from the checkpoint file:  "/scratch/10501391.yak.local/Gau-10351.chk"
 ------------------------------------------
 ./5/glo_1w_beta_boat5_b3lyp_631Gd_iopt.out
 ------------------------------------------
 Charge =  0 Multiplicity = 1

                         Standard orientation:
 ---------------------------------------------------------------------
 Center     Atomic      Atomic             Coordinates (Angstroms)
 Number     Number       Type             X           Y           Z
 ---------------------------------------------------------------------
      1          8           0       -1.446959    0.035013   -0.245720
      2          6           0        0.300703    1.095799    1.136930
      3          6           0        0.718458   -1.114652   -0.062430
      4          6           0        1.311811    0.260206    0.354740
      5          6           0       -0.796292   -1.214249    0.148850
      6          6           0       -0.998836    1.264382    0.345690
      7          1           0        2.163461    0.055124    1.021500
      8          1           0       -1.762556    1.607283    1.058760
      9          1           0        0.719396    2.091958    1.334680
     10          1           0        0.883288   -1.226243   -1.141990
     11          6           0       -0.868514    2.257281   -0.839100
     12          1           0       -1.851963    2.679634   -1.085350
     13          1           0       -0.514855    1.692201   -1.700940
     14          1           0       -1.031882   -1.400618    1.202980
     15          8           0       -1.289364   -2.199178   -0.681940
     16          1           0       -2.253044   -2.269565   -0.502380
     17          8           0        0.094448    3.298949   -0.645080
     18          1           0       -0.239230    3.914900    0.025900
     19          8           0        1.332476   -2.155814    0.673780
     20          1           0        2.254676   -2.171976    0.343270
     21          8           0        1.788883    0.924975   -0.820200
     22          1           0        1.727875    1.890045   -0.693370
     23          8           0       -0.010498    0.471029    2.382080
     24          1           0        0.648730   -0.219172    2.561550
     25          8           0       -3.912222   -1.325442   -0.394060
     26          1           0       -3.285621   -0.573603   -0.346230
     27          1           0       -4.184082   -1.341791   -1.324900
     28          8           0        3.663028   -1.283119   -0.835250
     29          1           0        3.270030   -0.411478   -1.041430
     30          1           0        3.693467   -1.740609   -1.689040
 ---------------------------------------------------------------------

 SCF Done:  E(RB3LYP) =  -839.980838148     A.U. after    1 cycles

 The electronic state is 1-A.
 Alpha  occ. eigenvalues --  -19.17911 -19.16914 -19.16162 -19.15865 -19.15375
 Alpha  occ. eigenvalues --  -19.14672 -19.13500 -19.13240 -10.27874 -10.25201
 Alpha  occ. eigenvalues --  -10.25099 -10.24869 -10.24727 -10.23184  -1.06635
 Alpha  occ. eigenvalues --   -1.04693  -1.03981  -1.02959  -1.01294  -1.00596
 Alpha  occ. eigenvalues --   -1.00410  -0.99339  -0.78289  -0.76379  -0.69711
 Alpha  occ. eigenvalues --   -0.66258  -0.62827  -0.56350  -0.55803  -0.53948
 Alpha  occ. eigenvalues --   -0.53338  -0.52963  -0.52171  -0.51004  -0.49877
 Alpha  occ. eigenvalues --   -0.49159  -0.45868  -0.45348  -0.42878  -0.42385
 Alpha  occ. eigenvalues --   -0.41615  -0.41208  -0.40005  -0.38757  -0.38468
 Alpha  occ. eigenvalues --   -0.36050  -0.35567  -0.34883  -0.33618  -0.32953
 Alpha  occ. eigenvalues --   -0.31505  -0.30775  -0.30047  -0.29213  -0.28897
 Alpha  occ. eigenvalues --   -0.27052  -0.25757  -0.25501
 Alpha virt. eigenvalues --    0.03600   0.06027   0.06347   0.06812   0.08968
 Alpha virt. eigenvalues --    0.10742   0.11514   0.12834   0.13490   0.14855
 Alpha virt. eigenvalues --    0.15111   0.16076   0.17454   0.18213   0.18484

 Mulliken charges:
               1
     1  O   -0.562445
     2  C    0.080815
     3  C    0.093819
     4  C    0.073382
     5  C    0.364367
     6  C    0.134163
     7  H    0.140900
     8  H    0.140670
     9  H    0.121720
    10  H    0.143042
    11  C   -0.077138
    12  H    0.142608
    13  H    0.187494
    14  H    0.140282
    15  O   -0.643539
    16  H    0.415855
    17  O   -0.624194
    18  H    0.402293
    19  O   -0.661491
    20  H    0.422808
    21  O   -0.670990
    22  H    0.427768
    23  O   -0.639247
    24  H    0.411350
    25  O   -0.797350
    26  H    0.417741
    27  H    0.394132
    28  O   -0.805685
    29  H    0.427543
    30  H    0.399324
 Sum of Mulliken charges =   0.00000

 Dipole moment (field-independent basis, Debye):
    X=              0.3295    Y=              4.2259    Z=             -1.6258  Tot=              4.5398
 Quadrupole moment (field-independent basis, Debye-Ang):
   XX=            -83.5078   YY=            -81.1788   ZZ=            -81.4364
   XY=             -5.2403   XZ=              3.3139   YZ=              6.2479

  Exact polarizability:  98.731  -2.870 101.531   1.385   1.191  83.096
 Approx polarizability: 126.714  -2.370 136.266  -0.315   1.149 123.736

 ******    1 imaginary frequencies (negative Signs) ******

                      1                      2                      3
                      A                      A                      A
 Frequencies --    -96.6617                37.6676                54.6059
 Red. masses --      1.9591                 5.5732                 4.7609
 Frc consts  --      0.0108                 0.0047                 0.0084
 IR Inten    --     61.6556                 2.9149                 8.9379

                      4                      5                      6
                      A                      A                      A
 Frequencies --     66.3043                86.5973               114.2312
 Red. masses --      5.2278                 5.5548                 2.2507
 Frc consts  --      0.0135                 0.0245                 0.0173
 IR Inten    --      9.9141                 4.8148                27.8412

                      7                      8                      9
                      A                      A                      A
 Frequencies --    119.9151               131.8899               170.2918
 Red. masses --      4.3460                 4.2279                 7.8888
 Frc consts  --      0.0368                 0.0433                 0.1348
 IR Inten    --     12.3956                 4.5487                 3.6164

                     10                     11                     12
                      A                      A                      A
 Frequencies --    177.5679               195.2641               218.0340
 Red. masses --      5.6235                 5.1573                 5.1952
 Frc consts  --      0.1045                 0.1159                 0.1455
 IR Inten    --     26.2944                 0.7581                14.7224

                     13                     14                     15
                      A                      A                      A
 Frequencies --    239.8761               251.4620               269.3372
 Red. masses --      1.5184                 2.4754                 2.7320
 Frc consts  --      0.0515                 0.0922                 0.1168
 IR Inten    --     90.2392                59.5100                 3.1198

                     16                     17                     18
                      A                      A                      A
 Frequencies --    280.3851               318.5071               326.9493
 Red. masses --      1.2549                 1.7081                 3.1763
 Frc consts  --      0.0581                 0.1021                 0.2000
 IR Inten    --    104.9520                47.9312                20.3427

                     19                     20                     21
                      A                      A                      A
 Frequencies --    341.6948               359.5139               368.0711
 Red. masses --      1.6542                 1.1220                 1.7410
 Frc consts  --      0.1138                 0.0854                 0.1390
 IR Inten    --     99.2257                54.2243                32.1387

                     22                     23                     24
                      A                      A                      A
 Frequencies --    387.9613               422.9581               465.2999
 Red. masses --      3.6664                 4.6279                 3.2155
 Frc consts  --      0.3251                 0.4878                 0.4102
 IR Inten    --     64.2129                22.2432                 4.6952

                     25                     26                     27
                      A                      A                      A
 Frequencies --    488.4482               499.5227               543.2376
 Red. masses --      3.7681                 1.8558                 3.1609
 Frc consts  --      0.5297                 0.2728                 0.5496
 IR Inten    --      8.8844                49.4516                32.7867

                     28                     29                     30
                      A                      A                      A
 Frequencies --    553.0271               573.3269               603.4009
 Red. masses --      2.7656                 5.0069                 4.0948
 Frc consts  --      0.4983                 0.9697                 0.8784
 IR Inten    --     43.1154                 7.4794                 6.2370

                     31                     32                     33
                      A                      A                      A
 Frequencies --    640.7998               674.4593               724.5108
 Red. masses --      1.1268                 1.0633                 1.0694
 Frc consts  --      0.2726                 0.2850                 0.3307
 IR Inten    --    275.2732               275.7561               140.0651

                     34                     35                     36
                      A                      A                      A
 Frequencies --    797.3628               846.4098               859.2532
 Red. masses --      2.3733                 1.4755                 2.3993
 Frc consts  --      0.8890                 0.6228                 1.0437
 IR Inten    --      9.6056               101.0504                25.8284

                     37                     38                     39
                      A                      A                      A
 Frequencies --    930.2197               952.2530              1013.1891
 Red. masses --      5.6359                 3.2651                 1.8667
 Frc consts  --      2.8733                 1.7444                 1.1290
 IR Inten    --    131.1674                45.1634                91.8635

                     40                     41                     42
                      A                      A                      A
 Frequencies --   1029.0391              1047.0754              1076.1883
 Red. masses --      3.5665                 3.2960                 6.1020
 Frc consts  --      2.2251                 2.1291                 4.1639
 IR Inten    --    100.4015                65.7867                27.1401

                     43                     44                     45
                      A                      A                      A
 Frequencies --   1088.7322              1101.7462              1111.8586
 Red. masses --      5.3170                 2.9040                 3.5533
 Frc consts  --      3.7133                 2.0769                 2.5881
 IR Inten    --     91.7006                34.3350                21.1749

                     46                     47                     48
                      A                      A                      A
 Frequencies --   1123.9265              1135.4427              1197.0377
 Red. masses --      3.7526                 2.4959                 3.7497
 Frc consts  --      2.7930                 1.8959                 3.1657
 IR Inten    --     96.6260                20.8967                95.1633

                     49                     50                     51
                      A                      A                      A
 Frequencies --   1213.8378              1250.0862              1283.0541
 Red. masses --      1.2832                 1.2016                 1.1599
 Frc consts  --      1.1139                 1.1063                 1.1250
 IR Inten    --     37.2205                 9.7270                18.0955

                     52                     53                     54
                      A                      A                      A
 Frequencies --   1287.7770              1336.9302              1349.1211
 Red. masses --      1.0949                 1.1665                 1.1639
 Frc consts  --      1.0698                 1.2285                 1.2482
 IR Inten    --    108.2248                21.5299                 4.1513

                     55                     56                     57
                      A                      A                      A
 Frequencies --   1352.6568              1364.0057              1385.9312
 Red. masses --      1.2092                 1.1937                 1.1934
 Frc consts  --      1.3035                 1.3085                 1.3506
 IR Inten    --      4.1204                 1.5459                44.1126

                     58                     59                     60
                      A                      A                      A
 Frequencies --   1395.6096              1402.3145              1425.7967
 Red. masses --      1.2335                 1.2634                 1.5111
 Frc consts  --      1.4155                 1.4639                 1.8100
 IR Inten    --     71.5624                 3.1845                16.7443

                     61                     62                     63
                      A                      A                      A
 Frequencies --   1429.6623              1442.5632              1464.5460
 Red. masses --      1.2711                 1.3320                 1.5404
 Frc consts  --      1.5307                 1.6332                 1.9467
 IR Inten    --     13.0184                 6.1084                53.3727

                     64                     65                     66
                      A                      A                      A
 Frequencies --   1474.6222              1533.8055              1548.9120
 Red. masses --      1.3959                 1.0764                 1.5013
 Frc consts  --      1.7884                 1.4920                 2.1222
 IR Inten    --     11.9416                 1.3081                30.9300

                     67                     68                     69
                      A                      A                      A
 Frequencies --   1727.2876              1730.0515              3004.6555
 Red. masses --      1.0775                 1.0770                 1.0844
 Frc consts  --      1.8940                 1.8993                 5.7681
 IR Inten    --     49.9371                58.0966                42.8402

                     70                     71                     72
                      A                      A                      A
 Frequencies --   3021.4211              3036.3298              3047.8978
 Red. masses --      1.0842                 1.0847                 1.0745
 Frc consts  --      5.8318                 5.8919                 5.8810
 IR Inten    --     23.6898                63.9613                48.6847

                     73                     74                     75
                      A                      A                      A
 Frequencies --   3048.5679              3072.8555              3170.0110
 Red. masses --      1.0822                 1.0860                 1.0952
 Frc consts  --      5.9259                 6.0416                 6.4842
 IR Inten    --     22.2383                50.2936                10.3991

                     76                     77                     78
                      A                      A                      A
 Frequencies --   3516.9264              3590.5554              3596.6005
 Red. masses --      1.0651                 1.0632                 1.0566
 Frc consts  --      7.7616                 8.0758                 8.0526
 IR Inten    --    172.0201               162.1826               413.0729

                     79                     80                     81
                      A                      A                      A
 Frequencies --   3625.2025              3667.2316              3728.9227
 Red. masses --      1.0568                 1.0665                 1.0671
 Frc consts  --      8.1826                 8.4505                 8.7422
 IR Inten    --    298.7674                68.5699                31.7795

                     82                     83                     84
                      A                      A                      A
 Frequencies --   3743.1933              3792.7086              3805.6268
 Red. masses --      1.0665                 1.0720                 1.0735
 Frc consts  --      8.8046                 9.0852                 9.1605
 IR Inten    --     23.6862                78.2388                75.5294

 - Thermochemistry -
 -------------------
 Temperature   298.150 Kelvin.  Pressure   1.00000 Atm.
 Atom     1 has atomic number  8 and mass  15.99491

 Molecular mass:   216.08452 amu.
 Principal axes and moments of inertia in atomic units:
                           1         2         3
     Eigenvalues --  2747.405063305.051084703.68160
           X            0.99958  -0.02889   0.00238
           Y            0.02888   0.99956   0.00606
           Z           -0.00255  -0.00598   0.99998
 This molecule is an asymmetric top.
 Rotational symmetry number  1.
 Warning -- assumption of classical behavior for rotation
           may cause significant error
 Rotational temperatures (Kelvin)      0.03153     0.02621     0.01841
 Rotational constants (GHZ):           0.65689     0.54606     0.38369
    1 imaginary frequencies ignored.
 Zero-point vibrational energy     651259.8 (Joules/Mol)
                                  155.65482 (Kcal/Mol)
 Warning -- explicit consideration of  29 degrees of freedom as
           vibrations may cause significant error
 Vibrational temperatures:     54.20    78.57    95.40   124.59   164.35
          (Kelvin)            172.53   189.76   245.01   255.48   280.94
                              313.70   345.13   361.80   387.52   403.41
                              458.26   470.41   491.62   517.26   529.57
                              558.19   608.54   669.46   702.77   718.70
                              781.60   795.68   824.89   868.16   921.97
                              970.40  1042.41  1147.23  1217.79  1236.27
                             1338.38  1370.08  1457.75  1480.56  1506.51
                             1548.39  1566.44  1585.17  1599.71  1617.08
                             1633.65  1722.27  1746.44  1798.59  1846.03
                             1852.82  1923.54  1941.08  1946.17  1962.50
                             1994.04  2007.97  2017.62  2051.40  2056.96
                             2075.52  2107.15  2121.65  2206.80  2228.54
                             2485.18  2489.16  4323.02  4347.15  4368.60
                             4385.24  4386.20  4421.15  4560.93  5060.07
                             5166.00  5174.70  5215.85  5276.32  5365.08
                             5385.61  5456.85  5475.44

 Zero-point correction=                           0.248052 (Hartree/Particle)
 Thermal correction to Energy=                    0.265374
 Thermal correction to Enthalpy=                  0.266318
 Thermal correction to Gibbs Free Energy=         0.203686
 Sum of electronic and zero-point Energies=           -839.732786
 Sum of electronic and thermal Energies=              -839.715465
 Sum of electronic and thermal Enthalpies=            -839.714520
 Sum of electronic and thermal Free Energies=         -839.777152

                     E (Thermal)             CV                S
                      KCal/Mol        Cal/Mol-Kelvin    Cal/Mol-Kelvin
 Total                  166.524             63.484            131.819
 Electronic               0.000              0.000              0.000
 Translational            0.889              2.981             42.015
 Rotational               0.889              2.981             32.124
 Vibrational            164.747             57.522             57.680
 Vibration     1          0.594              1.982              5.378
 Vibration     2          0.596              1.976              4.643
 Vibration     3          0.598              1.970              4.260
 Vibration     4          0.601              1.959              3.736
 Vibration     5          0.607              1.938              3.196
 Vibration     6          0.609              1.933              3.102
 Vibration     7          0.612              1.921              2.918
 Vibration     8          0.625              1.879              2.432
 Vibration     9          0.628              1.870              2.354
 Vibration    10          0.636              1.846              2.177
 Vibration    11          0.646              1.814              1.975
 Vibration    12          0.657              1.779              1.804
 Vibration    13          0.663              1.760              1.720
 Vibration    14          0.674              1.730              1.600
 Vibration    15          0.680              1.710              1.531
 Vibration    16          0.705              1.638              1.318
 Vibration    17          0.711              1.622              1.275
 Vibration    18          0.721              1.592              1.204
 Vibration    19          0.734              1.556              1.124
 Vibration    20          0.741              1.538              1.088
 Vibration    21          0.756              1.496              1.008
 Vibration    22          0.785              1.420              0.882
 Vibration    23          0.823              1.327              0.751
 Vibration    24          0.844              1.276              0.688
 Vibration    25          0.855              1.251              0.659
 Vibration    26          0.898              1.155              0.558
 Vibration    27          0.908              1.133              0.538
 Vibration    28          0.930              1.089              0.498
 Vibration    29          0.962              1.025              0.444

 Optimization completed.
    -- Stationary point found.
 Normal termination of Gaussian 09 at Tue Jan 31 07:33:50 2017.
