 Gaussian 09, Revision D.01,
 Gaussian 09:  EM64L-G09RevD.01 24-Apr-2013

 -----------------
 # opt freq hf/gen
 -----------------

 ------
 ch2ch2
 ------
 Symbolic Z-matrix:
 Charge =  0 Multiplicity = 1

 SCF Done:  E(RHF) =  -77.8908412767     A.U. after    9 cycles
 SCF Done:  E(RHF) =  -77.8913558926     A.U. after    8 cycles
 SCF Done:  E(RHF) =  -77.8913844572     A.U. after    7 cycles
 SCF Done:  E(RHF) =  -77.8913846644     A.U. after    6 cycles
 Optimization completed.
    -- Stationary point found.
 Normal termination of Gaussian 09 at Thu Nov 17 21:53:06 2016.

 ---------------------------------------------------------------
 #N Geom=AllCheck Guess=TCheck SCRF=Check GenChk RHF/ChkBas Freq
 ---------------------------------------------------------------

 Structure from the checkpoint file:  "/home/chongee/BasisSet/Gau-1171.chk"
 ------
 ch2ch2
 ------
 Charge =  0 Multiplicity = 1

                         Standard orientation:
 ---------------------------------------------------------------------
 Center     Atomic      Atomic             Coordinates (Angstroms)
 Number     Number       Type             X           Y           Z
 ---------------------------------------------------------------------
      1          6           0        0.664111    0.000000    0.000038
      2          6           0       -0.664111    0.000000    0.000024
      3          1           0        1.235185   -0.921476   -0.000106
      4          1           0        1.235185    0.921476   -0.000103
      5          1           0       -1.235185   -0.921476   -0.000081
      6          1           0       -1.235185    0.921476   -0.000084
 ---------------------------------------------------------------------

 SCF Done:  E(RHF) =  -77.8913846644     A.U. after    1 cycles

 The electronic state is 1-A.
 Alpha  occ. eigenvalues --  -11.22639 -11.22509  -1.03968  -0.79039  -0.64217
 Alpha  occ. eigenvalues --   -0.58711  -0.49770  -0.37630
 Alpha virt. eigenvalues --    0.17171   0.25696   0.26889   0.29584   0.31803
 Alpha virt. eigenvalues --    0.34547   0.37637   0.65744   0.69370   0.74017
 Alpha virt. eigenvalues --    0.81523   0.92879   1.11454   1.12474   1.14077

 Mulliken charges:
               1
     1  C   -0.355314
     2  C   -0.355314
     3  H    0.177657
     4  H    0.177657
     5  H    0.177657
     6  H    0.177657
 Sum of Mulliken charges =   0.00000

 Dipole moment (field-independent basis, Debye):
    X=              0.0000    Y=              0.0000    Z=             -0.0005  Tot=              0.0005
 Quadrupole moment (field-independent basis, Debye-Ang):
   XX=            -12.1260   YY=            -12.4397   ZZ=            -15.7700
   XY=              0.0000   XZ=             -0.0001   YZ=              0.0000

  Exact polarizability:  31.904   0.000  18.964   0.000   0.000  13.023
 Approx polarizability:  25.949   0.000  15.007   0.000   0.000  10.442

                      1                      2                      3
                      A                      A                      A
 Frequencies --    914.3128              1094.0832              1128.6563
 Red. masses --      1.0431                 1.1607                 1.5193
 Frc consts  --      0.5138                 0.8186                 1.1403
 IR Inten    --      1.7319               160.3723                 0.0000
 Raman Activ --      0.0000                 0.0000                10.5433

                      4                      5                      6
                      A                      A                      A
 Frequencies --   1142.1164              1358.0581              1480.8506
 Red. masses --      1.0078                 1.5255                 1.2990
 Frc consts  --      0.7746                 1.6577                 1.6784
 IR Inten    --      0.0000                 0.0000                 0.0000
 Raman Activ --      0.0000                 1.7311                53.7985

                      7                      8                      9
                      A                      A                      A
 Frequencies --   1604.7681              1806.9143              3243.0440
 Red. masses --      1.1111                 2.6675                 1.0485
 Frc consts  --      1.6859                 5.1314                 6.4969
 IR Inten    --     12.7374                 0.0000                19.0037
 Raman Activ --      0.0000                23.1351                 0.0000

                     10                     11                     12
                      A                      A                      A
 Frequencies --   3271.8533              3327.1719              3359.1707
 Red. masses --      1.0833                 1.1145                 1.1172
 Frc consts  --      6.8325                 7.2688                 7.4277
 IR Inten    --      0.0000                 0.0000                30.6741
 Raman Activ --    197.3830               159.1765                 0.0000

 - Thermochemistry -
 -------------------
 Temperature   298.150 Kelvin.  Pressure   1.00000 Atm.
 Atom     1 has atomic number  6 and mass  12.00000

 Molecular mass:    28.03130 amu.
 Principal axes and moments of inertia in atomic units:
                           1         2         3
     Eigenvalues --    12.22393  59.76368  71.98761
           X            1.00000   0.00000   0.00000
           Y            0.00000   1.00000   0.00000
           Z            0.00000   0.00000   1.00000
 This molecule is an asymmetric top.
 Rotational symmetry number  1.
 Rotational temperatures (Kelvin)      7.08559     1.44927     1.20318
 Rotational constants (GHZ):         147.64001    30.19796    25.07016
 Zero-point vibrational energy     141942.9 (Joules/Mol)
                                   33.92517 (Kcal/Mol)
 Vibrational temperatures:   1315.49  1574.14  1623.88  1643.25  1953.94
          (Kelvin)           2130.61  2308.90  2599.74  4666.01  4707.46
                             4787.05  4833.09

 Zero-point correction=                           0.054063 (Hartree/Particle)
 Thermal correction to Energy=                    0.057034
 Thermal correction to Enthalpy=                  0.057979
 Thermal correction to Gibbs Free Energy=         0.031904
 Sum of electronic and zero-point Energies=            -77.837321
 Sum of electronic and thermal Energies=               -77.834350
 Sum of electronic and thermal Enthalpies=             -77.833406
 Sum of electronic and thermal Free Energies=          -77.859481

                     E (Thermal)             CV                S
                      KCal/Mol        Cal/Mol-Kelvin    Cal/Mol-Kelvin
 Total                   35.790              7.508             54.879
 Electronic               0.000              0.000              0.000
 Translational            0.889              2.981             35.927
 Rotational               0.889              2.981             18.604
 Vibrational             34.012              1.547              0.349

 Optimization completed.
    -- Stationary point found.
 Normal termination of Gaussian 09 at Thu Nov 17 21:53:07 2016.
