 Gaussian 09, Revision D.01,
 Gaussian 09:  EM64L-G09RevD.01 24-Apr-2013

 -----------------
 # opt freq hf/gen
 -----------------

 ---
 ch4
 ---
 Symbolic Z-matrix:
 Charge =  0 Multiplicity = 1

 SCF Done:  E(RHF) =  -40.1141034814     A.U. after    8 cycles
 SCF Done:  E(RHF) =  -40.1148618548     A.U. after    8 cycles
 SCF Done:  E(RHF) =  -40.1148653234     A.U. after    7 cycles
 Optimization completed.
    -- Stationary point found.
 Normal termination of Gaussian 09 at Thu Nov 17 21:30:47 2016.

 ---------------------------------------------------------------
 #N Geom=AllCheck Guess=TCheck SCRF=Check GenChk RHF/ChkBas Freq
 ---------------------------------------------------------------

 Structure from the checkpoint file:  "/home/chongee/BasisSet/Gau-1026.chk"
 ---
 ch4
 ---
 Charge =  0 Multiplicity = 1

                         Standard orientation:
 ---------------------------------------------------------------------
 Center     Atomic      Atomic             Coordinates (Angstroms)
 Number     Number       Type             X           Y           Z
 ---------------------------------------------------------------------
      1          6           0        0.000000    0.000000    0.000000
      2          1           0        0.630510    0.630510    0.630510
      3          1           0       -0.630510   -0.630510    0.630510
      4          1           0        0.630510   -0.630510   -0.630510
      5          1           0       -0.630510    0.630510   -0.630510
 ---------------------------------------------------------------------

 SCF Done:  E(RHF) =  -40.1148653234     A.U. after    1 cycles

 The electronic state is 1-A1.
 Alpha  occ. eigenvalues --  -11.19991  -0.94586  -0.54158  -0.54158  -0.54158
 Alpha virt. eigenvalues --    0.27697   0.29972   0.29972   0.29972   0.46399
 Alpha virt. eigenvalues --    0.71238   0.71238   0.71238   1.13225   1.13225
 Alpha virt. eigenvalues --    1.13225   1.34483

 Mulliken charges:
               1
     1  C   -0.835853
     2  H    0.208963
     3  H    0.208963
     4  H    0.208963
     5  H    0.208963
 Sum of Mulliken charges =   0.00000

 Dipole moment (field-independent basis, Debye):
    X=              0.0000    Y=              0.0000    Z=              0.0000  Tot=              0.0000
 Quadrupole moment (field-independent basis, Debye-Ang):
   XX=             -8.4453   YY=             -8.4453   ZZ=             -8.4453
   XY=              0.0000   XZ=              0.0000   YZ=              0.0000

  Exact polarizability:  11.562   0.000  11.562   0.000   0.000  11.562
 Approx polarizability:   8.842   0.000   8.842   0.000   0.000   8.842

                      1                      2                      3
                     T2                     T2                     T2
 Frequencies --   1498.5859              1498.5859              1498.5859
 Red. masses --      1.1807                 1.1807                 1.1807
 Frc consts  --      1.5622                 1.5622                 1.5622
 IR Inten    --     21.5970                21.5970                21.5970
 Raman Activ --      2.2351                 2.2351                 2.2351

                      4                      5                      6
                      E                      E                     A1
 Frequencies --   1693.2004              1693.2004              3099.1212
 Red. masses --      1.0078                 1.0078                 1.0078
 Frc consts  --      1.7024                 1.7024                 5.7031
 IR Inten    --      0.0000                 0.0000                 0.0000
 Raman Activ --     30.8900                30.8900               155.1185

                      7                      8                      9
                     T2                     T2                     T2
 Frequencies --   3245.5841              3245.5841              3245.5841
 Red. masses --      1.1002                 1.1002                 1.1002
 Frc consts  --      6.8281                 6.8281                 6.8281
 IR Inten    --     36.2581                36.2581                36.2581
 Raman Activ --     87.0045                87.0045                87.0045

 - Thermochemistry -
 -------------------
 Temperature   298.150 Kelvin.  Pressure   1.00000 Atm.
 Atom     1 has atomic number  6 and mass  12.00000

 Molecular mass:    16.03130 amu.
 Principal axes and moments of inertia in atomic units:
                           1         2         3
     Eigenvalues --    11.44608  11.44608  11.44608
           X            0.22202  -0.20557   0.95313
           Y            0.23018   0.96094   0.15364
           Z            0.94748  -0.18528  -0.26067
 This molecule is a spherical top.
 Rotational symmetry number 12.
 Rotational temperatures (Kelvin)      7.56711     7.56711     7.56711
 Rotational constants (GHZ):         157.67325   157.67325   157.67325
 Zero-point vibrational energy     123921.4 (Joules/Mol)
                                   29.61791 (Kcal/Mol)
 Vibrational temperatures:   2156.13  2156.13  2156.13  2436.13  2436.13
          (Kelvin)           4458.94  4669.67  4669.67  4669.67

 Zero-point correction=                           0.047199 (Hartree/Particle)
 Thermal correction to Energy=                    0.050051
 Thermal correction to Enthalpy=                  0.050995
 Thermal correction to Gibbs Free Energy=         0.029881
 Sum of electronic and zero-point Energies=            -40.067666
 Sum of electronic and thermal Energies=               -40.064814
 Sum of electronic and thermal Enthalpies=             -40.063870
 Sum of electronic and thermal Free Energies=          -40.084984

                     E (Thermal)             CV                S
                      KCal/Mol        Cal/Mol-Kelvin    Cal/Mol-Kelvin
 Total                   31.407              6.263             44.438
 Electronic               0.000              0.000              0.000
 Translational            0.889              2.981             34.261
 Rotational               0.889              2.981             10.131
 Vibrational             29.630              0.301              0.046

 Optimization completed.
    -- Stationary point found.
 Normal termination of Gaussian 09 at Thu Nov 17 21:30:50 2016.
