 Gaussian 09, Revision E.01,
 Gaussian 09:  ES64L-G09RevE.01 30-Nov-2015

 -------------------
 # opt freq hf/6-31g
 -------------------

 ----
 h2o2
 ----
 Symbolic Z-matrix:
 Charge =  0 Multiplicity = 1

 SCF Done:  E(RHF) =  -150.693790621     A.U. after   10 cycles
 SCF Done:  E(RHF) =  -150.708241356     A.U. after   10 cycles
 SCF Done:  E(RHF) =  -150.709939666     A.U. after    9 cycles
 SCF Done:  E(RHF) =  -150.709983558     A.U. after    8 cycles
 SCF Done:  E(RHF) =  -150.710007338     A.U. after    8 cycles
 Optimization completed.
    -- Stationary point found.
 Normal termination of Gaussian 09 at Wed Nov 23 18:28:09 2016.

 --------------------------------------------------------------
 #N Geom=AllCheck Guess=TCheck SCRF=Check GenChk RHF/6-31G Freq
 --------------------------------------------------------------

 Structure from the checkpoint file:  "//home/aalrawas/scratch/Gau-2182.chk"
 ----
 h2o2
 ----
 Charge =  0 Multiplicity = 1

                         Standard orientation:
 ---------------------------------------------------------------------
 Center     Atomic      Atomic             Coordinates (Angstroms)
 Number     Number       Type             X           Y           Z
 ---------------------------------------------------------------------
      1          8           0        0.000000    0.731193   -0.000001
      2          1           0        0.936292    0.916190    0.000010
      3          8           0       -0.000000   -0.731193   -0.000001
      4          1           0       -0.936292   -0.916190    0.000010
 ---------------------------------------------------------------------

 SCF Done:  E(RHF) =  -150.710007338     A.U. after    1 cycles

 The electronic state is 1-A.
 Alpha  occ. eigenvalues --  -20.63464 -20.63439  -1.48332  -1.23035  -0.71856
 Alpha  occ. eigenvalues --   -0.67728  -0.62889  -0.53154  -0.46424
 Alpha virt. eigenvalues --    0.19882   0.21697   0.29974   1.06738   1.10821
 Alpha virt. eigenvalues --    1.11892   1.12639   1.22654   1.29636   1.34580
 Alpha virt. eigenvalues --    1.35892   1.67320   1.89358

 Mulliken charges:
               1
     1  O   -0.445346
     2  H    0.445346
     3  O   -0.445346
     4  H    0.445346
 Sum of Mulliken charges =  -0.00000

 Dipole moment (field-independent basis, Debye):
    X=              0.0000    Y=              0.0000    Z=              0.0001  Tot=              0.0001
 Quadrupole moment (field-independent basis, Debye-Ang):
   XX=             -7.9937   YY=            -11.5125   ZZ=            -12.6453
   XY=              4.3631   XZ=              0.0000   YZ=             -0.0000

  Exact polarizability:   9.118   2.965  16.123   0.000  -0.000   2.168
 Approx polarizability:   6.960   1.418  11.562   0.000   0.000   1.637

                      1                      2                      3
                      A                      A                      B
 Frequencies --     65.7722              1016.4369              1274.3878
 Red. masses --      1.0671                14.9187                 1.0671
 Frc consts  --      0.0027                 9.0812                 1.0211
 IR Inten    --    520.5299                 0.0000               144.1837
 Raman Activ --      0.0000                41.3379                 0.0000

                      4                      5                      6
                      A                      A                      B
 Frequencies --   1654.3746              3997.4137              4009.1002
 Red. masses --      1.1255                 1.0695                 1.0671
 Frc consts  --      1.8149                10.0687                10.1052
 IR Inten    --      0.0000                 0.0000               151.8259
 Raman Activ --      7.9905               140.1209                 0.0000

 - Thermochemistry -
 -------------------
 Temperature   298.150 Kelvin.  Pressure   1.00000 Atm.
 Atom     1 has atomic number  8 and mass  15.99491

 Molecular mass:    34.00548 amu.
 Principal axes and moments of inertia in atomic units:
                           1         2         3
     Eigenvalues --     5.68944  67.73921  73.42865
           X            0.10001   0.99499   0.00000
           Y            0.99499  -0.10001   0.00000
           Z           -0.00000  -0.00000   1.00000
 This molecule is an asymmetric top.
 Rotational symmetry number  2.
 Rotational temperatures (Kelvin)     15.22360     1.27864     1.17956
 Rotational constants (GHZ):         317.20873    26.64249    24.57816
 Zero-point vibrational energy      71880.5 (Joules/Mol)
                                   17.17986 (Kcal/Mol)
 Warning -- explicit consideration of   1 degrees of freedom as
           vibrations may cause significant error
 Vibrational temperatures:     94.63  1462.42  1833.56  2380.27  5751.38
          (Kelvin)           5768.19

 Zero-point correction=                           0.027378 (Hartree/Particle)
 Thermal correction to Energy=                    0.031062
 Thermal correction to Enthalpy=                  0.032006
 Thermal correction to Gibbs Free Energy=         0.004680
 Sum of electronic and zero-point Energies=           -150.682629
 Sum of electronic and thermal Energies=              -150.678945
 Sum of electronic and thermal Enthalpies=            -150.678001
 Sum of electronic and thermal Free Energies=         -150.705327

                     E (Thermal)             CV                S
                      KCal/Mol        Cal/Mol-Kelvin    Cal/Mol-Kelvin
 Total                   19.492              8.496             57.513
 Electronic               0.000              0.000              0.000
 Translational            0.889              2.981             36.503
 Rotational               0.889              2.981             16.611
 Vibrational             17.714              2.534              4.400
 Vibration     1          0.597              1.971              4.276

 Optimization completed.
    -- Stationary point found.
 Normal termination of Gaussian 09 at Wed Nov 23 18:28:11 2016.
