 Gaussian 09, Revision D.01,
 Gaussian 09:  EM64L-G09RevD.01 24-Apr-2013

 -----------------
 # opt freq hf/gen
 -----------------

 ---
 h2o
 ---
 Symbolic Z-matrix:
 Charge =  0 Multiplicity = 1

 SCF Done:  E(RHF) =  -75.8795093451     A.U. after   10 cycles
 SCF Done:  E(RHF) =  -75.8803254812     A.U. after    9 cycles
 SCF Done:  E(RHF) =  -75.8803367601     A.U. after    8 cycles
 SCF Done:  E(RHF) =  -75.8803372700     A.U. after    7 cycles
 Optimization completed.
    -- Stationary point found.
 Normal termination of Gaussian 09 at Thu Nov 17 22:09:21 2016.

 ---------------------------------------------------------------
 #N Geom=AllCheck Guess=TCheck SCRF=Check GenChk RHF/ChkBas Freq
 ---------------------------------------------------------------

 Structure from the checkpoint file:  "/home/chongee/BasisSet/Gau-1423.chk"
 ---
 h2o
 ---
 Charge =  0 Multiplicity = 1

                         Standard orientation:
 ---------------------------------------------------------------------
 Center     Atomic      Atomic             Coordinates (Angstroms)
 Number     Number       Type             X           Y           Z
 ---------------------------------------------------------------------
      1          8           0        0.000000    0.000000    0.113877
      2          1           0        0.000000    0.788257   -0.455507
      3          1           0        0.000000   -0.788257   -0.455507
 ---------------------------------------------------------------------

 SCF Done:  E(RHF) =  -75.8803372700     A.U. after    1 cycles

 The electronic state is 1-A1.
 Alpha  occ. eigenvalues --  -20.54969  -1.34918  -0.70292  -0.54695  -0.49837
 Alpha virt. eigenvalues --    0.19370   0.28177   0.62775   0.94391   1.00558
 Alpha virt. eigenvalues --    1.38940   1.60083   1.62119

 Mulliken charges:
               1
     1  O   -0.679046
     2  H    0.339523
     3  H    0.339523
 Sum of Mulliken charges =   0.00000

 Dipole moment (field-independent basis, Debye):
    X=              0.0000    Y=              0.0000    Z=             -2.5007  Tot=              2.5007
 Quadrupole moment (field-independent basis, Debye-Ang):
   XX=             -7.1238   YY=             -4.1243   ZZ=             -6.3197
   XY=              0.0000   XZ=              0.0000   YZ=              0.0000

  Exact polarizability:   1.881   0.000   7.153   0.000   0.000   4.483
 Approx polarizability:   1.287   0.000   5.219   0.000   0.000   3.331

                      1                      2                      3
                     A1                     A1                     B2
 Frequencies --   1746.2987              3796.8261              3939.9276
 Red. masses --      1.0888                 1.0395                 1.0856
 Frc consts  --      1.9563                 8.8294                 9.9290
 IR Inten    --     82.7142                 1.0288                39.3593
 Raman Activ --     10.8758               107.1527                50.7090

 - Thermochemistry -
 -------------------
 Temperature   298.150 Kelvin.  Pressure   1.00000 Atm.
 Atom     1 has atomic number  8 and mass  15.99491

 Molecular mass:    18.01056 amu.
 Principal axes and moments of inertia in atomic units:
                           1         2         3
     Eigenvalues --     2.07242   4.47248   6.54490
           X            0.00000   0.00000   1.00000
           Y            1.00000   0.00000   0.00000
           Z            0.00000   1.00000   0.00000
 This molecule is an asymmetric top.
 Rotational symmetry number  2.
 Rotational temperatures (Kelvin)     41.79363    19.36594    13.23379
 Rotational constants (GHZ):         870.83901   403.52110   275.74774
 Zero-point vibrational energy      56721.2 (Joules/Mol)
                                   13.55670 (Kcal/Mol)
 Vibrational temperatures:   2512.53  5462.78  5668.67
          (Kelvin)

 Zero-point correction=                           0.021604 (Hartree/Particle)
 Thermal correction to Energy=                    0.024438
 Thermal correction to Enthalpy=                  0.025382
 Thermal correction to Gibbs Free Energy=         0.003946
 Sum of electronic and zero-point Energies=            -75.858733
 Sum of electronic and thermal Energies=               -75.855899
 Sum of electronic and thermal Enthalpies=             -75.854955
 Sum of electronic and thermal Free Energies=          -75.876391

                     E (Thermal)             CV                S
                      KCal/Mol        Cal/Mol-Kelvin    Cal/Mol-Kelvin
 Total                   15.335              5.993             45.117
 Electronic               0.000              0.000              0.000
 Translational            0.889              2.981             34.608
 Rotational               0.889              2.981             10.505
 Vibrational             13.558              0.031              0.004

 Optimization completed.
    -- Stationary point found.
 Normal termination of Gaussian 09 at Thu Nov 17 22:09:22 2016.
