 Gaussian 09, Revision E.01,
 Gaussian 09:  ES64L-G09RevE.01 30-Nov-2015

 -----------------
 # hf/gen opt freq
 -----------------

 -------------------
 Title Card Required
 -------------------
 Symbolic Z-matrix:
 Charge =  0 Multiplicity = 1

 SCF Done:  E(RHF) =  -149.276793546     A.U. after    8 cycles
 SCF Done:  E(RHF) =  -149.284832455     A.U. after   10 cycles
 SCF Done:  E(RHF) =  -149.285108598     A.U. after    7 cycles
 Optimization completed.
    -- Stationary point found.
 Normal termination of Gaussian 09 at Wed Nov 23 17:42:47 2016.

 ---------------------------------------------------------------
 #N Geom=AllCheck Guess=TCheck SCRF=Check GenChk RHF/ChkBas Freq
 ---------------------------------------------------------------

 Structure from the checkpoint file:  "//home/aalrawas/scratch/Gau-7508.chk"
 -------------------
 Title Card Required
 -------------------
 Charge =  0 Multiplicity = 1

                         Standard orientation:
 ---------------------------------------------------------------------
 Center     Atomic      Atomic             Coordinates (Angstroms)
 Number     Number       Type             X           Y           Z
 ---------------------------------------------------------------------
      1          8           0        0.000000    0.000000    0.615653
      2          8           0        0.000000    0.000000   -0.615653
 ---------------------------------------------------------------------

 SCF Done:  E(RHF) =  -149.285108598     A.U. after    1 cycles

 Unable to determine electronic state:  an orbital has unidentified symmetry.
 Alpha  occ. eigenvalues --  -20.74663 -20.74614  -1.67394  -1.11590  -0.76932
 Alpha  occ. eigenvalues --   -0.70969  -0.64212  -0.48622
 Alpha virt. eigenvalues --    0.01150   0.42382   0.46232   0.51891   1.26736
 Alpha virt. eigenvalues --    1.29875   1.39806   1.43034   1.47577   1.65755

 Mulliken charges:
               1
     1  O   -0.000000
     2  O   -0.000000
 Sum of Mulliken charges =  -0.00000

 Dipole moment (field-independent basis, Debye):
    X=             -0.0000    Y=              0.0000    Z=              0.0000  Tot=              0.0000
 Quadrupole moment (field-independent basis, Debye-Ang):
   XX=             -9.1841   YY=            -10.7720   ZZ=            -11.2369
   XY=              0.0000   XZ=              0.0000   YZ=              0.0000

  Exact polarizability:   3.503   0.000   2.478  -0.000   0.000  13.430
 Approx polarizability:   2.806  -0.000   1.674  -0.000  -0.000  14.419

                      1
                     SGG
 Frequencies --   1660.1944
 Red. masses --     15.9949
 Frc consts  --     25.9747
 IR Inten    --      0.0000
 Raman Activ --     21.8509

 - Thermochemistry -
 -------------------
 Temperature   298.150 Kelvin.  Pressure   1.00000 Atm.
 Atom     1 has atomic number  8 and mass  15.99491

 Molecular mass:    31.98983 amu.
 Principal axes and moments of inertia in atomic units:
                           1         2         3
     Eigenvalues --    -0.00000  43.29932  43.29932
           X           -0.00000   0.70711   0.70711
           Y           -0.00000   0.70711  -0.70711
           Z            1.00000   0.00000   0.00000
 This molecule is a prolate symmetric top.
 Rotational symmetry number  2.
 Rotational temperature (Kelvin)      2.00035
 Rotational constant (GHZ):          41.680587
 Zero-point vibrational energy       9930.2 (Joules/Mol)
                                    2.37337 (Kcal/Mol)
 Vibrational temperatures:   2388.65
          (Kelvin)

 Zero-point correction=                           0.003782 (Hartree/Particle)
 Thermal correction to Energy=                    0.006145
 Thermal correction to Enthalpy=                  0.007089
 Thermal correction to Gibbs Free Energy=        -0.015185
 Sum of electronic and zero-point Energies=           -149.281326
 Sum of electronic and thermal Energies=              -149.278963
 Sum of electronic and thermal Enthalpies=            -149.278019
 Sum of electronic and thermal Free Energies=         -149.300294

                     E (Thermal)             CV                S
                      KCal/Mol        Cal/Mol-Kelvin    Cal/Mol-Kelvin
 Total                    3.856              5.010             46.881
 Electronic               0.000              0.000              0.000
 Translational            0.889              2.981             36.321
 Rotational               0.592              1.987             10.554
 Vibrational              2.375              0.042              0.006

 Optimization completed.
    -- Stationary point found.
 Normal termination of Gaussian 09 at Wed Nov 23 17:42:48 2016.
