 Gaussian 09, Revision E.01,
 Gaussian 09:  ES64L-G09RevE.01 30-Nov-2015

 -------------------------
 # b3lyp/6-31g(d) opt freq
 -------------------------

 ----------------------------------
 glo_2w_beta_ircf_boat4_B3LYP_631Gd
 ----------------------------------
 Symbolic Z-matrix:
 Charge =  0 Multiplicity = 1

 SCF Done:  E(RB3LYP) =  -839.962974136     A.U. after   14 cycles
 SCF Done:  E(RB3LYP) =  -839.965179163     A.U. after   13 cycles
 SCF Done:  E(RB3LYP) =  -839.971161029     A.U. after   13 cycles
 SCF Done:  E(RB3LYP) =  -839.976397376     A.U. after   13 cycles
 SCF Done:  E(RB3LYP) =  -839.978292272     A.U. after   13 cycles
 SCF Done:  E(RB3LYP) =  -839.980797897     A.U. after   12 cycles
 SCF Done:  E(RB3LYP) =  -839.979822459     A.U. after   13 cycles
 SCF Done:  E(RB3LYP) =  -839.981818871     A.U. after   10 cycles
 SCF Done:  E(RB3LYP) =  -839.982198142     A.U. after   11 cycles
 SCF Done:  E(RB3LYP) =  -839.982738255     A.U. after   12 cycles
 SCF Done:  E(RB3LYP) =  -839.998919516     A.U. after    9 cycles
 SCF Done:  E(RB3LYP) =  -839.998922217     A.U. after    9 cycles
 SCF Done:  E(RB3LYP) =  -839.998923511     A.U. after    8 cycles
 SCF Done:  E(RB3LYP) =  -839.998924319     A.U. after    8 cycles
 SCF Done:  E(RB3LYP) =  -839.998924789     A.U. after    8 cycles
 SCF Done:  E(RB3LYP) =  -839.998925084     A.U. after    7 cycles
 SCF Done:  E(RB3LYP) =  -839.998925255     A.U. after    7 cycles
 SCF Done:  E(RB3LYP) =  -839.998925329     A.U. after    7 cycles
 SCF Done:  E(RB3LYP) =  -839.998925346     A.U. after    7 cycles
 Optimization completed.
    -- Stationary point found.
 Normal termination of Gaussian 09 at Mon Jan 16 00:20:59 2017.

 --------------------------------------------------------------------
 #N Geom=AllCheck Guess=TCheck SCRF=Check GenChk RB3LYP/6-31G(d) Freq
 --------------------------------------------------------------------

 Structure from the checkpoint file:  "/scratch/10464832.yak.local/Gau-21773.chk"
 ----------------------------------
 glo_2w_beta_ircf_boat4_B3LYP_631Gd
 ----------------------------------
 Charge =  0 Multiplicity = 1

                         Standard orientation:
 ---------------------------------------------------------------------
 Center     Atomic      Atomic             Coordinates (Angstroms)
 Number     Number       Type             X           Y           Z
 ---------------------------------------------------------------------
      1          8           0       -0.926470    1.207025   -1.575552
      2          6           0       -0.774229   -0.385602    0.255034
      3          6           0        1.398660   -1.778042    0.336263
      4          6           0        0.142938   -1.355290   -0.506714
      5          6           0        2.447674   -0.702737    0.229482
      6          6           0       -1.691402    0.391808   -0.716245
      7          1           0        0.461259   -0.898824   -1.447837
      8          1           0       -2.208088   -0.340777   -1.352542
      9          1           0       -0.153315    0.346274    0.793366
     10          1           0        3.223146   -0.896080   -0.538238
     11          6           0       -2.745661    1.242190    0.013408
     12          1           0       -2.258924    1.949350    0.692726
     13          1           0       -3.308265    1.824938   -0.725797
     14          1           0        1.092523   -1.886132    1.388608
     15          8           0        2.439115    0.327125    0.885554
     16          8           0       -3.631926    0.463105    0.841000
     17          1           0       -4.230192   -0.026471    0.253857
     18          8           0        1.942949   -2.967830   -0.184898
     19          1           0        1.177790   -3.433010   -0.577632
     20          8           0       -0.572916   -2.537936   -0.836979
     21          1           0       -1.183154   -2.656416   -0.078266
     22          8           0       -1.496349   -1.198496    1.183977
     23          1           0       -2.346753   -0.745287    1.366148
     24          8           0        3.068243    2.820689   -0.168474
     25          1           0        1.307008    3.065300   -0.099592
     26          1           0        3.097366    1.920789    0.221053
     27          1           0        3.548882    3.383163    0.457106
     28          8           0        0.337711    3.042881    0.101791
     29          1           0       -0.476652    1.893528   -1.023349
     30          1           0        0.306631    2.773189    1.031675
 ---------------------------------------------------------------------

 SCF Done:  E(RB3LYP) =  -839.998925346     A.U. after    1 cycles

 The electronic state is 1-A.
 Alpha  occ. eigenvalues --  -19.18387 -19.18228 -19.16276 -19.15963 -19.15491
 Alpha  occ. eigenvalues --  -19.14699 -19.14605 -19.13020 -10.29997 -10.25042
 Alpha  occ. eigenvalues --  -10.24918 -10.24520 -10.24404 -10.23969  -1.07647
 Alpha  occ. eigenvalues --   -1.05845  -1.04779  -1.02550  -1.01979  -1.01086
 Alpha  occ. eigenvalues --   -1.00732  -0.99674  -0.78221  -0.74905  -0.70444
 Alpha  occ. eigenvalues --   -0.64403  -0.61250  -0.59333  -0.55095  -0.54681
 Alpha  occ. eigenvalues --   -0.52631  -0.52280  -0.51842  -0.50181  -0.48916
 Alpha  occ. eigenvalues --   -0.48579  -0.47544  -0.45364  -0.44708  -0.42946
 Alpha  occ. eigenvalues --   -0.41554  -0.40887  -0.40685  -0.40201  -0.39144
 Alpha  occ. eigenvalues --   -0.37601  -0.37114  -0.35156  -0.34644  -0.32668
 Alpha  occ. eigenvalues --   -0.31577  -0.31190  -0.30782  -0.30003  -0.28339
 Alpha  occ. eigenvalues --   -0.27780  -0.26992  -0.25205
 Alpha virt. eigenvalues --   -0.05431   0.03992   0.04761   0.07580   0.08502
 Alpha virt. eigenvalues --    0.10426   0.12068   0.13337   0.13917   0.14644
 Alpha virt. eigenvalues --    0.15123   0.16355   0.17013   0.17632   0.18192

 Mulliken charges:
               1
     1  O   -0.665427
     2  C    0.100543
     3  C    0.077817
     4  C    0.087518
     5  C    0.250743
     6  C    0.091440
     7  H    0.174578
     8  H    0.131801
     9  H    0.123511
    10  H    0.150598
    11  C   -0.089506
    12  H    0.157904
    13  H    0.162639
    14  H    0.162074
    15  O   -0.426583
    16  O   -0.623653
    17  H    0.406196
    18  O   -0.656221
    19  H    0.417010
    20  O   -0.653808
    21  H    0.416746
    22  O   -0.693290
    23  H    0.430732
    24  O   -0.804927
    25  H    0.437224
    26  H    0.428010
    27  H    0.398992
    28  O   -0.825752
    29  H    0.442124
    30  H    0.390968
 Sum of Mulliken charges =  -0.00000

 Dipole moment (field-independent basis, Debye):
    X=             -0.8258    Y=              0.4654    Z=              2.1917  Tot=              2.3880
 Quadrupole moment (field-independent basis, Debye-Ang):
   XX=            -69.0126   YY=            -87.8642   ZZ=            -89.8961
   XY=              9.8720   XZ=              5.7329   YZ=              7.3593

  Exact polarizability: 108.015   4.657 103.679  -0.017   4.455  77.442
 Approx polarizability: 134.245  12.036 141.816  -0.994   9.979 122.303

                      1                      2                      3
                      A                      A                      A
 Frequencies --     28.3851                40.2751                53.4977
 Red. masses --      5.1712                 6.8552                 6.0236
 Frc consts  --      0.0025                 0.0066                 0.0102
 IR Inten    --      4.4489                 0.8820                 2.6463

                      4                      5                      6
                      A                      A                      A
 Frequencies --     64.6579                73.2907                84.5391
 Red. masses --      6.3242                 6.6703                 5.6111
 Frc consts  --      0.0156                 0.0211                 0.0236
 IR Inten    --      0.2219                 0.9657                 1.3153

                      7                      8                      9
                      A                      A                      A
 Frequencies --    106.4450               142.6107               152.9879
 Red. masses --      4.7709                 4.4681                 2.6806
 Frc consts  --      0.0318                 0.0535                 0.0370
 IR Inten    --     13.2778                 4.9321                 5.6369

                     10                     11                     12
                      A                      A                      A
 Frequencies --    186.4687               196.6927               220.6624
 Red. masses --      5.1686                 4.8280                 4.2063
 Frc consts  --      0.1059                 0.1101                 0.1207
 IR Inten    --      1.2744                13.7769                 2.4038

                     13                     14                     15
                      A                      A                      A
 Frequencies --    255.9682               277.2541               283.8747
 Red. masses --      4.8998                 1.2705                 4.0597
 Frc consts  --      0.1891                 0.0575                 0.1927
 IR Inten    --     10.1037               142.3349                 1.0353

                     16                     17                     18
                      A                      A                      A
 Frequencies --    290.8665               308.2994               328.1777
 Red. masses --      4.5319                 1.1793                 3.4240
 Frc consts  --      0.2259                 0.0660                 0.2173
 IR Inten    --     13.4110                92.5946                56.9124

                     19                     20                     21
                      A                      A                      A
 Frequencies --    351.1633               358.9218               366.2797
 Red. masses --      3.2670                 1.3532                 1.3205
 Frc consts  --      0.2374                 0.1027                 0.1044
 IR Inten    --      8.6818                77.5827                53.3191

                     22                     23                     24
                      A                      A                      A
 Frequencies --    389.8005               412.7862               427.8634
 Red. masses --      4.6405                 3.5370                 3.3550
 Frc consts  --      0.4154                 0.3551                 0.3619
 IR Inten    --      3.4600                70.3147                28.4515

                     25                     26                     27
                      A                      A                      A
 Frequencies --    448.7125               476.4383               495.7847
 Red. masses --      2.3055                 1.4672                 3.2349
 Frc consts  --      0.2735                 0.1962                 0.4685
 IR Inten    --      9.6066                61.4357                20.1848

                     28                     29                     30
                      A                      A                      A
 Frequencies --    533.4984               554.6209               623.1553
 Red. masses --      1.1720                 4.9529                 3.3411
 Frc consts  --      0.1965                 0.8976                 0.7644
 IR Inten    --     43.6458                 5.5717                 6.3881

                     31                     32                     33
                      A                      A                      A
 Frequencies --    673.8306               686.6227               706.8462
 Red. masses --      1.1474                 1.1961                 1.3401
 Frc consts  --      0.3070                 0.3322                 0.3945
 IR Inten    --     60.6222               126.4586               148.9361

                     34                     35                     36
                      A                      A                      A
 Frequencies --    750.5785               769.0878               876.4496
 Red. masses --      1.0574                 1.9484                 2.3514
 Frc consts  --      0.3510                 0.6790                 1.0642
 IR Inten    --    199.6455                16.7079                14.0223

                     37                     38                     39
                      A                      A                      A
 Frequencies --    879.6221               922.8225               957.3381
 Red. masses --      2.8488                 1.0650                 2.4266
 Frc consts  --      1.2987                 0.5343                 1.3103
 IR Inten    --      1.9907               267.3732                34.7280

                     40                     41                     42
                      A                      A                      A
 Frequencies --   1009.9798              1034.9429              1053.7854
 Red. masses --      2.6018                 2.8340                 3.5540
 Frc consts  --      1.5637                 1.7885                 2.3253
 IR Inten    --     61.5670                23.3536                70.2959

                     43                     44                     45
                      A                      A                      A
 Frequencies --   1072.6706              1102.6335              1115.2077
 Red. masses --      2.7493                 3.6929                 5.2302
 Frc consts  --      1.8638                 2.6454                 3.8325
 IR Inten    --     20.2551                34.0131               170.0611

                     46                     47                     48
                      A                      A                      A
 Frequencies --   1127.2291              1134.3215              1149.2574
 Red. masses --      2.9258                 2.7439                 3.7283
 Frc consts  --      2.1904                 2.0801                 2.9014
 IR Inten    --      5.5570                31.4009                40.6876

                     49                     50                     51
                      A                      A                      A
 Frequencies --   1194.4795              1236.9443              1269.8881
 Red. masses --      1.4339                 1.2238                 1.3141
 Frc consts  --      1.2054                 1.1032                 1.2486
 IR Inten    --     31.0556                 6.3530                30.7238

                     52                     53                     54
                      A                      A                      A
 Frequencies --   1297.3665              1336.3730              1346.9944
 Red. masses --      1.1969                 1.1612                 1.1776
 Frc consts  --      1.1870                 1.2218                 1.2589
 IR Inten    --     11.7080                33.7389                24.1148

                     55                     56                     57
                      A                      A                      A
 Frequencies --   1357.8101              1386.1212              1391.2147
 Red. masses --      1.2270                 1.2042                 1.2808
 Frc consts  --      1.3329                 1.3632                 1.4606
 IR Inten    --     17.4845                92.5920                15.2221

                     58                     59                     60
                      A                      A                      A
 Frequencies --   1403.0077              1408.6613              1430.8471
 Red. masses --      1.2913                 1.2260                 1.3103
 Frc consts  --      1.4976                 1.4334                 1.5806
 IR Inten    --     31.0019                21.8721                 7.9169

                     61                     62                     63
                      A                      A                      A
 Frequencies --   1441.1956              1471.9582              1487.6724
 Red. masses --      1.4578                 1.1773                 1.4293
 Frc consts  --      1.7840                 1.5029                 1.8637
 IR Inten    --     37.7016               106.0361                45.7039

                     64                     65                     66
                      A                      A                      A
 Frequencies --   1524.5690              1532.2859              1719.8604
 Red. masses --      1.1384                 1.1167                 1.0841
 Frc consts  --      1.5590                 1.5447                 1.8894
 IR Inten    --     37.8115                29.9768                93.1225

                     67                     68                     69
                      A                      A                      A
 Frequencies --   1747.4341              1793.1954              2980.1118
 Red. masses --      1.1055                 7.4432                 1.0870
 Frc consts  --      1.9888                14.1015                 5.6877
 IR Inten    --     86.1898               176.3854                59.4271

                     70                     71                     72
                      A                      A                      A
 Frequencies --   3015.8698              3024.9176              3042.5335
 Red. masses --      1.0831                 1.0826                 1.0862
 Frc consts  --      5.8041                 5.8364                 5.9241
 IR Inten    --     19.6667                 5.0485                63.1717

                     73                     74                     75
                      A                      A                      A
 Frequencies --   3063.7315              3111.6981              3121.5883
 Red. masses --      1.0613                 1.0868                 1.1065
 Frc consts  --      5.8695                 6.2003                 6.3526
 IR Inten    --     38.5687                 7.8746                32.2164

                     76                     77                     78
                      A                      A                      A
 Frequencies --   3381.2552              3445.3551              3544.3527
 Red. masses --      1.0656                 1.0630                 1.0669
 Frc consts  --      7.1777                 7.4347                 7.8966
 IR Inten    --    798.6687               279.6151               452.5712

                     79                     80                     81
                      A                      A                      A
 Frequencies --   3573.3803              3580.8630              3623.3207
 Red. masses --      1.0564                 1.0639                 1.0643
 Frc consts  --      7.9479                 8.0380                 8.2326
 IR Inten    --    583.0932                31.9803                73.6218

                     82                     83                     84
                      A                      A                      A
 Frequencies --   3738.7465              3797.6115              3805.3480
 Red. masses --      1.0663                 1.0673                 1.0713
 Frc consts  --      8.7815                 9.0688                 9.1402
 IR Inten    --     25.0986                33.8533                97.7100

 - Thermochemistry -
 -------------------
 Temperature   298.150 Kelvin.  Pressure   1.00000 Atm.
 Atom     1 has atomic number  8 and mass  15.99491

 Molecular mass:   216.08452 amu.
 Principal axes and moments of inertia in atomic units:
                           1         2         3
     Eigenvalues --  3033.061593600.855585756.39146
           X            0.99883   0.04829   0.00126
           Y           -0.04830   0.99881   0.00608
           Z           -0.00096  -0.00613   0.99998
 This molecule is an asymmetric top.
 Rotational symmetry number  1.
 Warning -- assumption of classical behavior for rotation
           may cause significant error
 Rotational temperatures (Kelvin)      0.02856     0.02405     0.01505
 Rotational constants (GHZ):           0.59502     0.50120     0.31352
 Zero-point vibrational energy     647094.6 (Joules/Mol)
                                  154.65932 (Kcal/Mol)
 Warning -- explicit consideration of  29 degrees of freedom as
           vibrations may cause significant error
 Vibrational temperatures:     40.84    57.95    76.97    93.03   105.45
          (Kelvin)            121.63   153.15   205.18   220.12   268.29
                              283.00   317.48   368.28   398.91   408.43
                              418.49   443.57   472.17   505.25   516.41
                              526.99   560.84   593.91   615.60   645.60
                              685.49   713.32   767.58   797.97   896.58
                              969.49   987.90  1016.99  1079.91  1106.54
                             1261.01  1265.58  1327.73  1377.39  1453.13
                             1489.05  1516.16  1543.33  1586.44  1604.53
                             1621.83  1632.03  1653.52  1718.59  1779.68
                             1827.08  1866.62  1922.74  1938.02  1953.58
                             1994.32  2001.65  2018.61  2026.75  2058.67
                             2073.56  2117.82  2140.43  2193.51  2204.61
                             2474.49  2514.16  2580.01  4287.71  4339.16
                             4352.18  4377.52  4408.02  4477.03  4491.26
                             4864.87  4957.09  5099.53  5141.29  5152.06
                             5213.14  5379.22  5463.91  5475.04

 Zero-point correction=                           0.246465 (Hartree/Particle)
 Thermal correction to Energy=                    0.264865
 Thermal correction to Enthalpy=                  0.265809
 Thermal correction to Gibbs Free Energy=         0.199597
 Sum of electronic and zero-point Energies=           -839.752460
 Sum of electronic and thermal Energies=              -839.734061
 Sum of electronic and thermal Enthalpies=            -839.733117
 Sum of electronic and thermal Free Energies=         -839.799328

                     E (Thermal)             CV                S
                      KCal/Mol        Cal/Mol-Kelvin    Cal/Mol-Kelvin
 Total                  166.205             66.098            139.353
 Electronic               0.000              0.000              0.000
 Translational            0.889              2.981             42.015
 Rotational               0.889              2.981             32.508
 Vibrational            164.428             60.136             64.830
 Vibration     1          0.593              1.984              5.939
 Vibration     2          0.594              1.981              5.246
 Vibration     3          0.596              1.976              4.684
 Vibration     4          0.597              1.971              4.310
 Vibration     5          0.599              1.967              4.063
 Vibration     6          0.601              1.960              3.783
 Vibration     7          0.605              1.944              3.333
 Vibration     8          0.616              1.911              2.769
 Vibration     9          0.619              1.899              2.635
 Vibration    10          0.632              1.858              2.263
 Vibration    11          0.636              1.844              2.164
 Vibration    12          0.647              1.810              1.954
 Vibration    13          0.666              1.753              1.689
 Vibration    14          0.678              1.716              1.551
 Vibration    15          0.682              1.704              1.510
 Vibration    16          0.687              1.691              1.469
 Vibration    17          0.698              1.658              1.371
 Vibration    18          0.711              1.619              1.269
 Vibration    19          0.728              1.573              1.161
 Vibration    20          0.734              1.557              1.127
 Vibration    21          0.739              1.542              1.095
 Vibration    22          0.758              1.492              1.001
 Vibration    23          0.777              1.442              0.917
 Vibration    24          0.789              1.410              0.866
 Vibration    25          0.808              1.364              0.800
 Vibration    26          0.833              1.302              0.720
 Vibration    27          0.851              1.259              0.669
 Vibration    28          0.888              1.176              0.579
 Vibration    29          0.910              1.130              0.535

 Normal termination of Gaussian 09 at Mon Jan 16 00:50:49 2017.
