 Gaussian 09, Revision E.01,
 Gaussian 09:  ES64L-G09RevE.01 30-Nov-2015

 -------------------------
 # b3lyp/6-31g(d) opt freq
 -------------------------

 -----------------------------------
 glo_2w_alpha_ircr_boat4_B3LYP_631Gd
 -----------------------------------
 Symbolic Z-matrix:
 Charge =  0 Multiplicity = 1

 SCF Done:  E(RB3LYP) =  -839.969086564     A.U. after   14 cycles
 SCF Done:  E(RB3LYP) =  -839.972140702     A.U. after   13 cycles
 SCF Done:  E(RB3LYP) =  -839.976129936     A.U. after   13 cycles
 SCF Done:  E(RB3LYP) =  -839.980051960     A.U. after   13 cycles
 SCF Done:  E(RB3LYP) =  -839.984325952     A.U. after   12 cycles
 SCF Done:  E(RB3LYP) =  -839.985291914     A.U. after   12 cycles
 SCF Done:  E(RB3LYP) =  -839.986784442     A.U. after   12 cycles
 SCF Done:  E(RB3LYP) =  -839.987351035     A.U. after   12 cycles
 SCF Done:  E(RB3LYP) =  -839.987287531     A.U. after   12 cycles
 SCF Done:  E(RB3LYP) =  -839.987628622     A.U. after    9 cycles
 SCF Done:  E(RB3LYP) =  -839.988125689     A.U. after    8 cycles
 SCF Done:  E(RB3LYP) =  -839.988125769     A.U. after    8 cycles
 SCF Done:  E(RB3LYP) =  -839.988125889     A.U. after    8 cycles
 SCF Done:  E(RB3LYP) =  -839.988125927     A.U. after    7 cycles
 SCF Done:  E(RB3LYP) =  -839.988125893     A.U. after    7 cycles
 SCF Done:  E(RB3LYP) =  -839.988125858     A.U. after    7 cycles
 SCF Done:  E(RB3LYP) =  -839.988125814     A.U. after    7 cycles
 SCF Done:  E(RB3LYP) =  -839.988125775     A.U. after    7 cycles
 SCF Done:  E(RB3LYP) =  -839.988125765     A.U. after    7 cycles
 Optimization completed.
    -- Stationary point found.
 Normal termination of Gaussian 09 at Sun Jan 15 22:26:09 2017.

 --------------------------------------------------------------------
 #N Geom=AllCheck Guess=TCheck SCRF=Check GenChk RB3LYP/6-31G(d) Freq
 --------------------------------------------------------------------

 Structure from the checkpoint file:  "/scratch/10464839.yak.local/Gau-15608.chk"
 -----------------------------------
 glo_2w_alpha_ircr_boat4_B3LYP_631Gd
 -----------------------------------
 Charge =  0 Multiplicity = 1

                         Standard orientation:
 ---------------------------------------------------------------------
 Center     Atomic      Atomic             Coordinates (Angstroms)
 Number     Number       Type             X           Y           Z
 ---------------------------------------------------------------------
      1          8           0       -0.643349    0.609892    0.609493
      2          6           0        1.539716    0.218618   -0.277744
      3          6           0        0.349179   -2.131189   -0.254455
      4          6           0        1.464576   -1.211523    0.317949
      5          6           0       -0.946324   -1.469176   -0.675413
      6          6           0        0.622283    1.213548    0.457250
      7          1           0        1.274602   -1.134722    1.399125
      8          1           0        1.087147    1.397813    1.443381
      9          1           0        1.271817    0.192029   -1.348479
     10          6           0        0.517829    2.548795   -0.296590
     11          1           0        0.135473    2.372827   -1.307107
     12          1           0       -0.186686    3.220990    0.211450
     13          1           0        0.774272   -2.533354   -1.193628
     14          8           0        1.798568    3.178581   -0.465240
     15          1           0        2.052191    3.563663    0.388799
     16          8           0        0.086397   -3.180982    0.643397
     17          1           0       -0.879454   -3.173583    0.783485
     18          8           0        2.675950   -1.900290    0.067977
     19          1           0        3.374994   -1.223015    0.103713
     20          8           0        2.894972    0.638782   -0.139428
     21          1           0        2.921484    1.565410   -0.448132
     22          1           0       -0.898367   -0.703636   -1.461318
     23          8           0       -2.023752   -1.879967   -0.259029
     24          8           0       -3.935491    0.108318   -0.706750
     25          1           0       -3.342081   -0.665193   -0.565032
     26          1           0       -3.350980    1.472495    0.215884
     27          1           0       -4.831892   -0.227767   -0.563343
     28          8           0       -2.860516    2.121514    0.785710
     29          1           0       -1.368724    1.271013    0.762654
     30          1           0       -3.259595    2.023807    1.663521
 ---------------------------------------------------------------------

 SCF Done:  E(RB3LYP) =  -839.988125765     A.U. after    1 cycles

 The electronic state is 1-A.
 Alpha  occ. eigenvalues --  -19.17939 -19.17410 -19.15902 -19.15537 -19.14935
 Alpha  occ. eigenvalues --  -19.14380 -19.13452 -19.12528 -10.29603 -10.24683
 Alpha  occ. eigenvalues --  -10.24346 -10.24261 -10.24191 -10.23517  -1.07251
 Alpha  occ. eigenvalues --   -1.05078  -1.03231  -1.02484  -1.01645  -1.01211
 Alpha  occ. eigenvalues --   -1.00359  -0.99255  -0.77736  -0.74794  -0.69476
 Alpha  occ. eigenvalues --   -0.63956  -0.61449  -0.56454  -0.55069  -0.54570
 Alpha  occ. eigenvalues --   -0.53395  -0.52982  -0.51939  -0.51252  -0.49443
 Alpha  occ. eigenvalues --   -0.47726  -0.45679  -0.44726  -0.44168  -0.42206
 Alpha  occ. eigenvalues --   -0.42113  -0.41258  -0.39917  -0.38496  -0.37552
 Alpha  occ. eigenvalues --   -0.36857  -0.36236  -0.34525  -0.34332  -0.33018
 Alpha  occ. eigenvalues --   -0.31858  -0.31132  -0.30168  -0.28746  -0.27173
 Alpha  occ. eigenvalues --   -0.27087  -0.26001  -0.24881
 Alpha virt. eigenvalues --   -0.03190   0.04183   0.04912   0.08103   0.08375
 Alpha virt. eigenvalues --    0.09696   0.11295   0.12148   0.13673   0.14950
 Alpha virt. eigenvalues --    0.15706   0.16181   0.16751   0.17129   0.18597

 Mulliken charges:
               1
     1  O   -0.700764
     2  C    0.096348
     3  C    0.086507
     4  C    0.157300
     5  C    0.286885
     6  C    0.130379
     7  H    0.139706
     8  H    0.111832
     9  H    0.110346
    10  C   -0.095592
    11  H    0.162456
    12  H    0.159369
    13  H    0.160469
    14  O   -0.620733
    15  H    0.404831
    16  O   -0.638307
    17  H    0.406391
    18  O   -0.651203
    19  H    0.419615
    20  O   -0.685109
    21  H    0.419369
    22  H    0.144316
    23  O   -0.478546
    24  O   -0.825695
    25  H    0.439943
    26  H    0.443410
    27  H    0.399711
    28  O   -0.816364
    29  H    0.439169
    30  H    0.393961
 Sum of Mulliken charges =  -0.00000

 Dipole moment (field-independent basis, Debye):
    X=             -3.4226    Y=              3.7030    Z=              0.9261  Tot=              5.1268
 Quadrupole moment (field-independent basis, Debye-Ang):
   XX=            -72.7051   YY=            -91.9067   ZZ=            -79.7508
   XY=             11.9376   XZ=             -3.8322   YZ=             10.0913

  Exact polarizability: 114.961   2.758 102.569  -0.908   0.633  75.453
 Approx polarizability: 154.025   5.804 130.448  -3.663  -1.635 114.556

                      1                      2                      3
                      A                      A                      A
 Frequencies --     16.4958                30.8665                38.1482
 Red. masses --      5.8526                 4.7068                 6.9239
 Frc consts  --      0.0009                 0.0026                 0.0059
 IR Inten    --      3.2282                 6.9616                 3.4428

                      4                      5                      6
                      A                      A                      A
 Frequencies --     49.0704                69.8696                91.5673
 Red. masses --      6.6442                 5.9498                 7.5646
 Frc consts  --      0.0094                 0.0171                 0.0374
 IR Inten    --      1.1138                 1.7864                 0.0454

                      7                      8                      9
                      A                      A                      A
 Frequencies --    126.4451               156.7112               176.6832
 Red. masses --      4.9536                 5.2089                 3.3846
 Frc consts  --      0.0467                 0.0754                 0.0623
 IR Inten    --      6.8211                 6.4314                 3.6753

                     10                     11                     12
                      A                      A                      A
 Frequencies --    187.4231               221.9403               227.1312
 Red. masses --      6.1136                 1.6286                 4.4570
 Frc consts  --      0.1265                 0.0473                 0.1355
 IR Inten    --     15.4300                61.6953                19.8733

                     13                     14                     15
                      A                      A                      A
 Frequencies --    247.7101               267.2062               273.1349
 Red. masses --      2.2430                 3.4835                 3.2554
 Frc consts  --      0.0811                 0.1465                 0.1431
 IR Inten    --     41.0236                 5.7811                30.5840

                     16                     17                     18
                      A                      A                      A
 Frequencies --    301.4530               312.9516               328.6120
 Red. masses --      1.3522                 3.4826                 1.2222
 Frc consts  --      0.0724                 0.2010                 0.0778
 IR Inten    --     58.3125                11.5545               127.1692

                     19                     20                     21
                      A                      A                      A
 Frequencies --    343.4361               363.2583               369.4067
 Red. masses --      2.5349                 3.6399                 2.4659
 Frc consts  --      0.1762                 0.2830                 0.1983
 IR Inten    --     55.1960                31.3748                53.5364

                     22                     23                     24
                      A                      A                      A
 Frequencies --    389.3514               400.1457               412.3949
 Red. masses --      5.4002                 2.1103                 1.0879
 Frc consts  --      0.4823                 0.1991                 0.1090
 IR Inten    --     37.9842                33.1509                41.4615

                     25                     26                     27
                      A                      A                      A
 Frequencies --    443.6404               446.7192               476.7007
 Red. masses --      1.5483                 5.2999                 1.2074
 Frc consts  --      0.1795                 0.6231                 0.1617
 IR Inten    --    132.3707                 9.7557                56.6402

                     28                     29                     30
                      A                      A                      A
 Frequencies --    487.5292               507.0090               572.6591
 Red. masses --      2.6193                 2.4525                 4.5032
 Frc consts  --      0.3668                 0.3714                 0.8701
 IR Inten    --      6.5840                21.1329                 7.3641

                     31                     32                     33
                      A                      A                      A
 Frequencies --    622.5113               646.7497               661.3871
 Red. masses --      3.0249                 1.1030                 1.1065
 Frc consts  --      0.6906                 0.2718                 0.2852
 IR Inten    --     20.5008                69.6217               141.8869

                     34                     35                     36
                      A                      A                      A
 Frequencies --    780.9918               809.4443               855.9721
 Red. masses --      3.5509                 1.0937                 2.2804
 Frc consts  --      1.2761                 0.4222                 0.9844
 IR Inten    --     40.5172               246.6676                45.3649

                     37                     38                     39
                      A                      A                      A
 Frequencies --    899.9960               970.0761               989.0879
 Red. masses --      1.7406                 1.0724                 2.2316
 Frc consts  --      0.8307                 0.5946                 1.2863
 IR Inten    --      6.1204               112.6137                25.0595

                     40                     41                     42
                      A                      A                      A
 Frequencies --   1004.2811              1036.3772              1049.5323
 Red. masses --      4.0035                 2.8872                 4.0022
 Frc consts  --      2.3790                 1.8271                 2.5974
 IR Inten    --      9.1705               111.6340                32.9843

                     43                     44                     45
                      A                      A                      A
 Frequencies --   1078.1003              1106.4988              1112.0225
 Red. masses --      2.4226                 2.7825                 3.9183
 Frc consts  --      1.6590                 2.0072                 2.8548
 IR Inten    --     37.7396                81.0827                42.9386

                     46                     47                     48
                      A                      A                      A
 Frequencies --   1117.9247              1144.6619              1159.7915
 Red. masses --      4.4905                 2.6341                 3.8734
 Frc consts  --      3.3065                 2.0334                 3.0697
 IR Inten    --     95.5825                10.6331                57.4368

                     49                     50                     51
                      A                      A                      A
 Frequencies --   1196.9588              1265.3579              1273.6937
 Red. masses --      1.5184                 1.3245                 1.2018
 Frc consts  --      1.2818                 1.2495                 1.1487
 IR Inten    --     10.2339                 3.8290                50.9774

                     52                     53                     54
                      A                      A                      A
 Frequencies --   1309.2514              1318.6051              1345.2428
 Red. masses --      1.1978                 1.1008                 1.2655
 Frc consts  --      1.2097                 1.1276                 1.3493
 IR Inten    --     37.9344                40.8122                16.3751

                     55                     56                     57
                      A                      A                      A
 Frequencies --   1354.8090              1370.4988              1386.0650
 Red. masses --      1.1404                 1.1789                 1.2194
 Frc consts  --      1.2333                 1.3046                 1.3802
 IR Inten    --      3.7513                17.8223                31.8146

                     58                     59                     60
                      A                      A                      A
 Frequencies --   1403.3068              1413.2345              1424.5151
 Red. masses --      1.2362                 1.1944                 1.3137
 Frc consts  --      1.4343                 1.4055                 1.5707
 IR Inten    --     37.3478                95.7916                 1.6188

                     61                     62                     63
                      A                      A                      A
 Frequencies --   1449.8651              1461.9589              1465.7743
 Red. masses --      1.4174                 1.3018                 1.4061
 Frc consts  --      1.7555                 1.6393                 1.7799
 IR Inten    --     89.7630                28.3605                35.2646

                     64                     65                     66
                      A                      A                      A
 Frequencies --   1489.1114              1533.3132              1729.0011
 Red. masses --      1.4555                 1.0968                 1.0875
 Frc consts  --      1.9016                 1.5193                 1.9154
 IR Inten    --     64.3332                 4.9614               147.8840

                     67                     68                     69
                      A                      A                      A
 Frequencies --   1745.1304              1759.8581              2953.6378
 Red. masses --      1.2236                 4.2239                 1.0807
 Frc consts  --      2.1956                 7.7075                 5.5548
 IR Inten    --     10.2838               203.5398                29.9313

                     70                     71                     72
                      A                      A                      A
 Frequencies --   2957.4998              2970.5645              3020.9065
 Red. masses --      1.0800                 1.0844                 1.0848
 Frc consts  --      5.5657                 5.6380                 5.8326
 IR Inten    --      8.2338                80.8970                50.7501

                     73                     74                     75
                      A                      A                      A
 Frequencies --   3048.1040              3076.2047              3114.7309
 Red. masses --      1.0643                 1.0892                 1.1029
 Frc consts  --      5.8261                 6.0725                 6.3042
 IR Inten    --     27.5143                50.2692                27.0930

                     76                     77                     78
                      A                      A                      A
 Frequencies --   3285.9222              3394.7462              3502.2449
 Red. masses --      1.0691                 1.0630                 1.0593
 Frc consts  --      6.8014                 7.2177                 7.6552
 IR Inten    --    698.2726               872.7278               766.5665

                     79                     80                     81
                      A                      A                      A
 Frequencies --   3626.0843              3641.7494              3687.4618
 Red. masses --      1.0660                 1.0648                 1.0646
 Frc consts  --      8.2580                 8.3201                 8.5287
 IR Inten    --    220.5735                50.0678                57.0508

                     82                     83                     84
                      A                      A                      A
 Frequencies --   3740.9710              3792.0618              3812.1430
 Red. masses --      1.0663                 1.0672                 1.0691
 Frc consts  --      8.7919                 9.0419                 9.1538
 IR Inten    --     26.6360                39.7334                84.1851

 - Thermochemistry -
 -------------------
 Temperature   298.150 Kelvin.  Pressure   1.00000 Atm.
 Atom     1 has atomic number  8 and mass  15.99491

 Molecular mass:   216.08452 amu.
 Principal axes and moments of inertia in atomic units:
                           1         2         3
     Eigenvalues --  3005.880223494.779426046.62346
           X            0.99998  -0.00623  -0.00190
           Y            0.00625   0.99996   0.00698
           Z            0.00186  -0.00700   0.99997
 This molecule is an asymmetric top.
 Rotational symmetry number  1.
 Warning -- assumption of classical behavior for rotation
           may cause significant error
 Rotational temperatures (Kelvin)      0.02881     0.02478     0.01432
 Rotational constants (GHZ):           0.60040     0.51641     0.29847
 Zero-point vibrational energy     644199.0 (Joules/Mol)
                                  153.96725 (Kcal/Mol)
 Warning -- explicit consideration of  30 degrees of freedom as
           vibrations may cause significant error
 Vibrational temperatures:     23.73    44.41    54.89    70.60   100.53
          (Kelvin)            131.74   181.93   225.47   254.21   269.66
                              319.32   326.79   356.40   384.45   392.98
                              433.72   450.27   472.80   494.13   522.65
                              531.49   560.19   575.72   593.34   638.30
                              642.73   685.87   701.44   729.47   823.93
                              895.65   930.53   951.59  1123.67  1164.61
                             1231.55  1294.89  1395.72  1423.08  1444.93
                             1491.11  1510.04  1551.14  1592.00  1599.95
                             1608.44  1646.91  1668.68  1722.15  1820.57
                             1832.56  1883.72  1897.18  1935.50  1949.27
                             1971.84  1994.24  2019.04  2033.33  2049.56
                             2086.03  2103.43  2108.92  2142.50  2206.09
                             2487.64  2510.85  2532.04  4249.62  4255.18
                             4273.97  4346.41  4385.54  4425.97  4481.40
                             4727.70  4884.28  5038.94  5217.12  5239.66
                             5305.43  5382.42  5455.92  5484.82

 Zero-point correction=                           0.245362 (Hartree/Particle)
 Thermal correction to Energy=                    0.263925
 Thermal correction to Enthalpy=                  0.264869
 Thermal correction to Gibbs Free Energy=         0.197494
 Sum of electronic and zero-point Energies=           -839.742763
 Sum of electronic and thermal Energies=              -839.724201
 Sum of electronic and thermal Enthalpies=            -839.723257
 Sum of electronic and thermal Free Energies=         -839.790631

                     E (Thermal)             CV                S
                      KCal/Mol        Cal/Mol-Kelvin    Cal/Mol-Kelvin
 Total                  165.615             66.583            141.802
 Electronic               0.000              0.000              0.000
 Translational            0.889              2.981             42.015
 Rotational               0.889              2.981             32.518
 Vibrational            163.838             60.621             67.269
 Vibration     1          0.593              1.986              7.017
 Vibration     2          0.594              1.984              5.773
 Vibration     3          0.594              1.982              5.353
 Vibration     4          0.595              1.978              4.855
 Vibration     5          0.598              1.968              4.157
 Vibration     6          0.602              1.955              3.626
 Vibration     7          0.611              1.927              2.999
 Vibration     8          0.620              1.895              2.589
 Vibration     9          0.628              1.871              2.363
 Vibration    10          0.632              1.857              2.253
 Vibration    11          0.648              1.808              1.943
 Vibration    12          0.651              1.800              1.902
 Vibration    13          0.661              1.767              1.747
 Vibration    14          0.672              1.733              1.614
 Vibration    15          0.676              1.723              1.576
 Vibration    16          0.693              1.671              1.409
 Vibration    17          0.701              1.649              1.347
 Vibration    18          0.712              1.618              1.267
 Vibration    19          0.722              1.589              1.196
 Vibration    20          0.737              1.548              1.108
 Vibration    21          0.742              1.535              1.082
 Vibration    22          0.757              1.493              1.003
 Vibration    23          0.766              1.470              0.962
 Vibration    24          0.776              1.443              0.918
 Vibration    25          0.803              1.375              0.815
 Vibration    26          0.806              1.368              0.806
 Vibration    27          0.833              1.302              0.719
 Vibration    28          0.843              1.278              0.690
 Vibration    29          0.862              1.234              0.641
 Vibration    30          0.929              1.090              0.499

 Normal termination of Gaussian 09 at Sun Jan 15 22:58:01 2017.
