 Gaussian 09, Revision E.01,
 Gaussian 09:  ES64L-G09RevE.01 30-Nov-2015

 -------------------------
 # b3lyp/6-31g(d) opt freq
 -------------------------

 -----------------------------------
 glo_1w_alpha_ircr_boat4_B3LYP_631Gd
 -----------------------------------
 Symbolic Z-matrix:
 Charge =  0 Multiplicity = 1

 SCF Done:  E(RB3LYP) =  -839.970712667     A.U. after   14 cycles
 SCF Done:  E(RB3LYP) =  -839.977551418     A.U. after   13 cycles
 SCF Done:  E(RB3LYP) =  -839.983018626     A.U. after   13 cycles
 SCF Done:  E(RB3LYP) =  -839.986264210     A.U. after   13 cycles
 SCF Done:  E(RB3LYP) =  -839.988076953     A.U. after   12 cycles
 SCF Done:  E(RB3LYP) =  -839.989592202     A.U. after   12 cycles
 SCF Done:  E(RB3LYP) =  -839.990018862     A.U. after   12 cycles
 SCF Done:  E(RB3LYP) =  -839.989898094     A.U. after   12 cycles
 SCF Done:  E(RB3LYP) =  -839.990320482     A.U. after    9 cycles
 SCF Done:  E(RB3LYP) =  -839.990527658     A.U. after   11 cycles
 SCF Done:  E(RB3LYP) =  -839.992046115     A.U. after    8 cycles
 SCF Done:  E(RB3LYP) =  -839.992061955     A.U. after    9 cycles
 SCF Done:  E(RB3LYP) =  -839.992070184     A.U. after    8 cycles
 SCF Done:  E(RB3LYP) =  -839.992077643     A.U. after    8 cycles
 SCF Done:  E(RB3LYP) =  -839.992081102     A.U. after    8 cycles
 SCF Done:  E(RB3LYP) =  -839.992081996     A.U. after    8 cycles
 SCF Done:  E(RB3LYP) =  -839.992082349     A.U. after    7 cycles
 SCF Done:  E(RB3LYP) =  -839.992082650     A.U. after    7 cycles
 SCF Done:  E(RB3LYP) =  -839.992082766     A.U. after    7 cycles
 Optimization completed.
    -- Stationary point found.
 Normal termination of Gaussian 09 at Mon Jan 16 00:55:20 2017.

 --------------------------------------------------------------------
 #N Geom=AllCheck Guess=TCheck SCRF=Check GenChk RB3LYP/6-31G(d) Freq
 --------------------------------------------------------------------

 Structure from the checkpoint file:  "/scratch/10464834.yak.local/Gau-5168.chk"
 -----------------------------------
 glo_1w_alpha_ircr_boat4_B3LYP_631Gd
 -----------------------------------
 Charge =  0 Multiplicity = 1

                         Standard orientation:
 ---------------------------------------------------------------------
 Center     Atomic      Atomic             Coordinates (Angstroms)
 Number     Number       Type             X           Y           Z
 ---------------------------------------------------------------------
      1          8           0       -1.026710    1.117694   -0.950768
      2          6           0        0.994874    0.123179   -0.219977
      3          6           0       -1.015837   -1.552493    0.390951
      4          6           0        0.490320   -1.224825    0.361214
      5          6           0       -1.818384   -1.370600   -0.885603
      6          6           0        0.065587    1.337732   -0.074429
      7          1           0        0.806874   -1.230092    1.416756
      8          1           0       -0.265905    1.425446    0.972475
      9          1           0        1.149245   -0.025966   -1.299410
     10          6           0        0.726725    2.658691   -0.515017
     11          1           0        1.062585    2.560932   -1.551255
     12          1           0       -0.022377    3.459928   -0.479879
     13          1           0       -1.010712   -2.644806    0.552839
     14          8           0        1.896046    3.020715    0.240622
     15          1           0        1.614229    3.247849    1.141607
     16          8           0       -1.672664   -0.919822    1.491090
     17          1           0       -2.583529   -1.262878    1.464854
     18          8           0        1.043935   -2.312281   -0.358518
     19          1           0        2.030091   -2.252778   -0.333010
     20          8           0        2.257621    0.359657    0.431804
     21          1           0        2.476549    1.311086    0.330268
     22          1           0       -1.292191   -1.565405   -1.835462
     23          8           0       -3.019382   -1.159437   -0.842056
     24          8           0       -3.222693    1.393469    0.603507
     25          1           0       -3.717570    0.758944    0.054425
     26          1           0       -1.854627    1.420474   -0.503658
     27          1           0       -2.695524    0.795775    1.169378
     28          8           0        3.758686   -1.839131   -0.142494
     29          1           0        4.055108   -2.195339    0.708869
     30          1           0        3.469335   -0.920180    0.062864
 ---------------------------------------------------------------------

 SCF Done:  E(RB3LYP) =  -839.992082766     A.U. after    1 cycles

 The electronic state is 1-A.
 Alpha  occ. eigenvalues --  -19.18570 -19.18151 -19.16030 -19.15964 -19.15924
 Alpha  occ. eigenvalues --  -19.14851 -19.14617 -19.12908 -10.28837 -10.25708
 Alpha  occ. eigenvalues --  -10.25012 -10.24900 -10.24647 -10.24511  -1.06975
 Alpha  occ. eigenvalues --   -1.05707  -1.03907  -1.03254  -1.02773  -1.01176
 Alpha  occ. eigenvalues --   -1.00688  -0.99877  -0.78081  -0.75670  -0.70469
 Alpha  occ. eigenvalues --   -0.64519  -0.61632  -0.57198  -0.55921  -0.54541
 Alpha  occ. eigenvalues --   -0.53543  -0.52831  -0.52364  -0.50509  -0.50130
 Alpha  occ. eigenvalues --   -0.47698  -0.46743  -0.45449  -0.44228  -0.43903
 Alpha  occ. eigenvalues --   -0.41414  -0.40542  -0.40275  -0.39477  -0.39372
 Alpha  occ. eigenvalues --   -0.37451  -0.36777  -0.35534  -0.34951  -0.34068
 Alpha  occ. eigenvalues --   -0.32175  -0.31272  -0.30842  -0.29801  -0.28551
 Alpha  occ. eigenvalues --   -0.27293  -0.26415  -0.25425
 Alpha virt. eigenvalues --   -0.03007   0.03799   0.04697   0.07379   0.09335
 Alpha virt. eigenvalues --    0.10695   0.11032   0.12865   0.13479   0.13961
 Alpha virt. eigenvalues --    0.14734   0.15187   0.16257   0.17376   0.18318

 Mulliken charges:
               1
     1  O   -0.663828
     2  C    0.131560
     3  C    0.044186
     4  C    0.120624
     5  C    0.280838
     6  C    0.062707
     7  H    0.137507
     8  H    0.125993
     9  H    0.143864
    10  C   -0.079624
    11  H    0.172716
    12  H    0.155484
    13  H    0.179184
    14  O   -0.621835
    15  H    0.406785
    16  O   -0.640473
    17  H    0.406630
    18  O   -0.685991
    19  H    0.430616
    20  O   -0.704638
    21  H    0.433746
    22  H    0.150583
    23  O   -0.461436
    24  O   -0.810158
    25  H    0.420525
    26  H    0.429691
    27  H    0.414627
    28  O   -0.803977
    29  H    0.393983
    30  H    0.430112
 Sum of Mulliken charges =  -0.00000

 Dipole moment (field-independent basis, Debye):
    X=              0.4198    Y=              1.1168    Z=              3.0989  Tot=              3.3206
 Quadrupole moment (field-independent basis, Debye-Ang):
   XX=            -88.6514   YY=            -82.5820   ZZ=            -82.7234
   XY=              5.8996   XZ=              4.3295   YZ=             -2.2890

  Exact polarizability: 110.985  -1.928  98.493   1.881   1.542  80.691
 Approx polarizability: 149.629  -4.660 126.911   3.355   5.569 123.679

                      1                      2                      3
                      A                      A                      A
 Frequencies --     28.5710                55.7449                64.8125
 Red. masses --      6.1255                 6.3328                 6.3631
 Frc consts  --      0.0029                 0.0116                 0.0157
 IR Inten    --      0.6680                 3.6987                 1.1290

                      4                      5                      6
                      A                      A                      A
 Frequencies --     75.2626               114.1908               124.3914
 Red. masses --      5.6993                 6.4259                 4.5821
 Frc consts  --      0.0190                 0.0494                 0.0418
 IR Inten    --     11.0288                 5.2479                10.1827

                      7                      8                      9
                      A                      A                      A
 Frequencies --    131.8420               167.6214               169.7751
 Red. masses --      7.1663                 2.6008                 5.6184
 Frc consts  --      0.0734                 0.0431                 0.0954
 IR Inten    --     12.4602                 7.2665                 9.0179

                     10                     11                     12
                      A                      A                      A
 Frequencies --    182.8094               204.3049               217.8585
 Red. masses --      4.7683                 3.7511                 1.7398
 Frc consts  --      0.0939                 0.0923                 0.0487
 IR Inten    --      0.3263                19.0156                54.6926

                     13                     14                     15
                      A                      A                      A
 Frequencies --    230.6612               247.0120               269.6453
 Red. masses --      3.8263                 3.2639                 3.4281
 Frc consts  --      0.1199                 0.1173                 0.1469
 IR Inten    --      9.2367                28.1237                11.3689

                     16                     17                     18
                      A                      A                      A
 Frequencies --    284.9832               298.1425               313.6650
 Red. masses --      5.2966                 3.2474                 1.1036
 Frc consts  --      0.2534                 0.1701                 0.0640
 IR Inten    --      3.1350                19.9140               112.6761

                     19                     20                     21
                      A                      A                      A
 Frequencies --    327.1615               361.8559               385.0528
 Red. masses --      1.5461                 1.5813                 1.4448
 Frc consts  --      0.0975                 0.1220                 0.1262
 IR Inten    --    114.9229                29.1589               121.5124

                     22                     23                     24
                      A                      A                      A
 Frequencies --    397.6763               418.9481               447.7780
 Red. masses --      5.0216                 6.2215                 5.4902
 Frc consts  --      0.4679                 0.6434                 0.6486
 IR Inten    --      0.9252                27.5099                15.7876

                     25                     26                     27
                      A                      A                      A
 Frequencies --    478.5470               481.4797               538.7590
 Red. masses --      1.7280                 2.4857                 2.2745
 Frc consts  --      0.2332                 0.3395                 0.3890
 IR Inten    --    100.0326                71.0207                60.7879

                     28                     29                     30
                      A                      A                      A
 Frequencies --    557.6121               580.3352               612.6720
 Red. masses --      3.4600                 1.4199                 1.6561
 Frc consts  --      0.6339                 0.2817                 0.3663
 IR Inten    --     50.7138               222.0339                25.6271

                     31                     32                     33
                      A                      A                      A
 Frequencies --    636.3787               691.2475               722.4262
 Red. masses --      1.6265                 1.4624                 2.1609
 Frc consts  --      0.3881                 0.4117                 0.6645
 IR Inten    --     37.0754                 4.4973                29.4656

                     34                     35                     36
                      A                      A                      A
 Frequencies --    793.1238               824.1214               871.3649
 Red. masses --      1.0753                 3.1993                 1.1529
 Frc consts  --      0.3985                 1.2802                 0.5157
 IR Inten    --    272.2625                62.8468               133.0105

                     37                     38                     39
                      A                      A                      A
 Frequencies --    892.7193               926.9406               960.6498
 Red. masses --      1.6761                 1.0704                 2.0207
 Frc consts  --      0.7870                 0.5419                 1.0987
 IR Inten    --     21.8517               126.9766                17.9458

                     40                     41                     42
                      A                      A                      A
 Frequencies --   1016.4151              1033.1510              1068.4880
 Red. masses --      2.8666                 4.7376                 2.8383
 Frc consts  --      1.7449                 2.9795                 1.9092
 IR Inten    --    107.4431                29.3549                23.3235

                     43                     44                     45
                      A                      A                      A
 Frequencies --   1073.9600              1094.5383              1101.3494
 Red. masses --      4.6421                 3.5264                 3.7137
 Frc consts  --      3.1546                 2.4891                 2.6540
 IR Inten    --    108.3961                58.2968                19.0193

                     46                     47                     48
                      A                      A                      A
 Frequencies --   1121.8997              1129.6521              1140.1286
 Red. masses --      2.5450                 3.0855                 2.7736
 Frc consts  --      1.8873                 2.3199                 2.1242
 IR Inten    --     14.9950                47.9484                21.7173

                     49                     50                     51
                      A                      A                      A
 Frequencies --   1196.9528              1275.5224              1291.0821
 Red. masses --      1.3909                 1.1265                 1.1798
 Frc consts  --      1.1741                 1.0799                 1.1587
 IR Inten    --     10.3682                18.2892                 4.5188

                     52                     53                     54
                      A                      A                      A
 Frequencies --   1304.7373              1326.4483              1355.5243
 Red. masses --      1.1564                 1.1727                 1.1688
 Frc consts  --      1.1598                 1.2157                 1.2653
 IR Inten    --     46.2735                21.0680                 1.8311

                     55                     56                     57
                      A                      A                      A
 Frequencies --   1376.6201              1387.5973              1393.7985
 Red. masses --      1.2594                 1.3015                 1.3106
 Frc consts  --      1.4062                 1.4764                 1.5001
 IR Inten    --     13.4388                43.3059                52.4977

                     58                     59                     60
                      A                      A                      A
 Frequencies --   1397.0649              1415.7796              1428.1232
 Red. masses --      1.2538                 1.2809                 1.2717
 Frc consts  --      1.4418                 1.5127                 1.5282
 IR Inten    --     30.5113                 2.7842                16.8804

                     61                     62                     63
                      A                      A                      A
 Frequencies --   1446.8475              1486.8616              1507.9893
 Red. masses --      1.4284                 1.3168                 1.2535
 Frc consts  --      1.7618                 1.7152                 1.6794
 IR Inten    --     36.5521                34.2986                45.2499

                     64                     65                     66
                      A                      A                      A
 Frequencies --   1517.4685              1532.8866              1728.4729
 Red. masses --      1.2237                 1.1746                 1.0741
 Frc consts  --      1.6602                 1.6261                 1.8906
 IR Inten    --     29.1639                23.6347                50.7185

                     67                     68                     69
                      A                      A                      A
 Frequencies --   1745.3887              1786.3883              2979.3183
 Red. masses --      1.2023                 4.9904                 1.0802
 Frc consts  --      2.1580                 9.3829                 5.6490
 IR Inten    --    197.3739               119.8447                18.0237

                     70                     71                     72
                      A                      A                      A
 Frequencies --   2998.8427              3004.9215              3022.6828
 Red. masses --      1.0831                 1.0829                 1.0859
 Frc consts  --      5.7387                 5.7611                 5.8457
 IR Inten    --     18.4556                 6.7899                33.5136

                     73                     74                     75
                      A                      A                      A
 Frequencies --   3032.6368              3056.4122              3130.3214
 Red. masses --      1.0894                 1.0655                 1.1027
 Frc consts  --      5.9030                 5.8643                 6.3660
 IR Inten    --     69.2321                41.4977                20.3315

                     76                     77                     78
                      A                      A                      A
 Frequencies --   3400.5060              3403.3192              3506.3401
 Red. masses --      1.0678                 1.0682                 1.0627
 Frc consts  --      7.2752                 7.2897                 7.6981
 IR Inten    --    162.9444               836.9368               937.2545

                     79                     80                     81
                      A                      A                      A
 Frequencies --   3539.3513              3640.6147              3698.6734
 Red. masses --      1.0634                 1.0518                 1.0649
 Frc consts  --      7.8488                 8.2139                 8.5835
 IR Inten    --    206.1649               154.2474                28.9925

                     82                     83                     84
                      A                      A                      A
 Frequencies --   3735.8581              3743.8127              3794.5859
 Red. masses --      1.0662                 1.0744                 1.0692
 Frc consts  --      8.7672                 8.8726                 9.0706
 IR Inten    --     25.0561                68.5377                62.3441

 - Thermochemistry -
 -------------------
 Temperature   298.150 Kelvin.  Pressure   1.00000 Atm.
 Atom     1 has atomic number  8 and mass  15.99491

 Molecular mass:   216.08452 amu.
 Principal axes and moments of inertia in atomic units:
                           1         2         3
     Eigenvalues --  2557.880973625.610685419.51714
           X            0.99976  -0.02178  -0.00186
           Y            0.02177   0.99975  -0.00556
           Z            0.00198   0.00552   0.99998
 This molecule is an asymmetric top.
 Rotational symmetry number  1.
 Warning -- assumption of classical behavior for rotation
           may cause significant error
 Rotational temperatures (Kelvin)      0.03386     0.02389     0.01598
 Rotational constants (GHZ):           0.70556     0.49778     0.33301
 Zero-point vibrational energy     648719.8 (Joules/Mol)
                                  155.04775 (Kcal/Mol)
 Warning -- explicit consideration of  30 degrees of freedom as
           vibrations may cause significant error
 Vibrational temperatures:     41.11    80.20    93.25   108.29   164.29
          (Kelvin)            178.97   189.69   241.17   244.27   263.02
                              293.95   313.45   331.87   355.39   387.96
                              410.03   428.96   451.29   470.71   520.63
                              554.00   572.17   602.77   644.25   688.52
                              692.74   775.15   802.28   834.97   881.50
                              915.61   994.55  1039.41  1141.13  1185.73
                             1253.70  1284.42  1333.66  1382.16  1462.39
                             1486.47  1537.31  1545.19  1574.79  1584.59
                             1614.16  1625.32  1640.39  1722.15  1835.19
                             1857.58  1877.22  1908.46  1950.29  1980.65
                             1996.44  2005.36  2010.06  2036.99  2054.75
                             2081.69  2139.26  2169.66  2183.30  2205.48
                             2486.88  2511.22  2570.21  4286.57  4314.66
                             4323.41  4348.96  4363.28  4397.49  4503.83
                             4892.56  4896.61  5044.84  5092.33  5238.03
                             5321.56  5375.06  5386.50  5459.56

 Zero-point correction=                           0.247084 (Hartree/Particle)
 Thermal correction to Energy=                    0.265127
 Thermal correction to Enthalpy=                  0.266071
 Thermal correction to Gibbs Free Energy=         0.201717
 Sum of electronic and zero-point Energies=           -839.744998
 Sum of electronic and thermal Energies=              -839.726956
 Sum of electronic and thermal Enthalpies=            -839.726012
 Sum of electronic and thermal Free Energies=         -839.790366

                     E (Thermal)             CV                S
                      KCal/Mol        Cal/Mol-Kelvin    Cal/Mol-Kelvin
 Total                  166.370             65.606            135.445
 Electronic               0.000              0.000              0.000
 Translational            0.889              2.981             42.015
 Rotational               0.889              2.981             32.286
 Vibrational            164.592             59.645             61.144
 Vibration     1          0.593              1.984              5.926
 Vibration     2          0.596              1.975              4.602
 Vibration     3          0.597              1.971              4.305
 Vibration     4          0.599              1.966              4.011
 Vibration     5          0.607              1.938              3.196
 Vibration     6          0.610              1.929              3.031
 Vibration     7          0.612              1.922              2.919
 Vibration     8          0.624              1.882              2.462
 Vibration     9          0.625              1.880              2.438
 Vibration    10          0.630              1.863              2.300
 Vibration    11          0.640              1.834              2.094
 Vibration    12          0.646              1.814              1.977
 Vibration    13          0.652              1.794              1.874
 Vibration    14          0.661              1.768              1.752
 Vibration    15          0.674              1.729              1.598
 Vibration    16          0.683              1.702              1.504
 Vibration    17          0.691              1.677              1.427
 Vibration    18          0.702              1.648              1.343
 Vibration    19          0.711              1.621              1.274
 Vibration    20          0.736              1.551              1.114
 Vibration    21          0.754              1.502              1.019
 Vibration    22          0.764              1.475              0.971
 Vibration    23          0.782              1.429              0.896
 Vibration    24          0.807              1.366              0.803
 Vibration    25          0.835              1.298              0.714
 Vibration    26          0.838              1.291              0.706
 Vibration    27          0.894              1.164              0.568
 Vibration    28          0.913              1.123              0.529
 Vibration    29          0.937              1.074              0.485
 Vibration    30          0.972              1.005              0.428

 Normal termination of Gaussian 09 at Mon Jan 16 01:26:56 2017.
