 Gaussian 09, Revision E.01,
 Gaussian 09:  ES64L-G09RevE.01 30-Nov-2015

 -------------------------
 # b3lyp/6-31g(d) opt freq
 -------------------------

 ----------------------------------
 glo_1w_beta_ircr_boat4_B3LYP_631Gd
 ----------------------------------
 Symbolic Z-matrix:
 Charge =  0 Multiplicity = 1

 SCF Done:  E(RB3LYP) =  -839.963095549     A.U. after   14 cycles
 SCF Done:  E(RB3LYP) =  -839.968595199     A.U. after   14 cycles
 SCF Done:  E(RB3LYP) =  -839.975045245     A.U. after   14 cycles
 SCF Done:  E(RB3LYP) =  -839.977316761     A.U. after   13 cycles
 SCF Done:  E(RB3LYP) =  -839.981116264     A.U. after   13 cycles
 SCF Done:  E(RB3LYP) =  -839.982354376     A.U. after   12 cycles
 SCF Done:  E(RB3LYP) =  -839.982927432     A.U. after   12 cycles
 SCF Done:  E(RB3LYP) =  -839.982501814     A.U. after   12 cycles
 SCF Done:  E(RB3LYP) =  -839.983344664     A.U. after   12 cycles
 SCF Done:  E(RB3LYP) =  -839.983462081     A.U. after   10 cycles
 SCF Done:  E(RB3LYP) =  -839.993637426     A.U. after   10 cycles
 SCF Done:  E(RB3LYP) =  -839.993640354     A.U. after    8 cycles
 SCF Done:  E(RB3LYP) =  -839.993642965     A.U. after    8 cycles
 SCF Done:  E(RB3LYP) =  -839.993644677     A.U. after    8 cycles
 SCF Done:  E(RB3LYP) =  -839.993645343     A.U. after    8 cycles
 SCF Done:  E(RB3LYP) =  -839.993645592     A.U. after    7 cycles
 SCF Done:  E(RB3LYP) =  -839.993645763     A.U. after    7 cycles
 SCF Done:  E(RB3LYP) =  -839.993646102     A.U. after    7 cycles
 SCF Done:  E(RB3LYP) =  -839.993646581     A.U. after    7 cycles
 Optimization completed.
    -- Stationary point found.
 Normal termination of Gaussian 09 at Sun Jan 15 22:44:05 2017.

 --------------------------------------------------------------------
 #N Geom=AllCheck Guess=TCheck SCRF=Check GenChk RB3LYP/6-31G(d) Freq
 --------------------------------------------------------------------

 Structure from the checkpoint file:  "/scratch/10464835.yak.local/Gau-17674.chk"
 ----------------------------------
 glo_1w_beta_ircr_boat4_B3LYP_631Gd
 ----------------------------------
 Charge =  0 Multiplicity = 1

                         Standard orientation:
 ---------------------------------------------------------------------
 Center     Atomic      Atomic             Coordinates (Angstroms)
 Number     Number       Type             X           Y           Z
 ---------------------------------------------------------------------
      1          8           0       -1.436272    1.241490    0.839001
      2          6           0        0.608353    0.196028   -0.109682
      3          6           0       -0.919784   -1.774525    0.854042
      4          6           0        0.465850   -1.254308    0.425105
      5          6           0       -2.011355   -1.765290   -0.207004
      6          6           0       -0.017617    1.329198    0.739172
      7          1           0        1.090721   -1.300715    1.333576
      8          1           0        0.365203    1.244057    1.764994
      9          1           0        0.179667    0.222902   -1.120288
     10          1           0       -2.945373   -2.258665    0.136646
     11          6           0        0.295128    2.742035    0.200536
     12          1           0       -0.078448    2.830840   -0.825161
     13          1           0       -0.245078    3.470826    0.816928
     14          1           0       -0.750748   -2.829131    1.107071
     15          8           0       -1.964134   -1.224856   -1.296165
     16          8           0        1.689833    3.070535    0.120940
     17          1           0        2.027573    3.165537    1.026343
     18          8           0       -1.470061   -1.175490    2.014804
     19          1           0       -1.674687   -0.246250    1.767584
     20          8           0        0.896436   -2.183002   -0.549338
     21          1           0        1.876608   -2.150273   -0.633874
     22          8           0        2.032012    0.420626   -0.168201
     23          1           0        2.181085    1.375113   -0.328119
     24          8           0       -2.555970    1.424952   -1.684692
     25          1           0       -1.835439    1.374336   -0.058274
     26          1           0       -2.571602    0.457454   -1.826361
     27          1           0       -2.043162    1.773004   -2.429606
     28          8           0        3.632727   -1.728529   -0.731138
     29          1           0        4.034043   -1.913278    0.131605
     30          1           0        3.269622   -0.820387   -0.637762
 ---------------------------------------------------------------------

 SCF Done:  E(RB3LYP) =  -839.993646581     A.U. after    1 cycles

 The electronic state is 1-A.
 Alpha  occ. eigenvalues --  -19.19139 -19.17206 -19.16857 -19.16418 -19.15847
 Alpha  occ. eigenvalues --  -19.14266 -19.14092 -19.11976 -10.28883 -10.25858
 Alpha  occ. eigenvalues --  -10.25644 -10.24359 -10.24123 -10.23641  -1.06513
 Alpha  occ. eigenvalues --   -1.06213  -1.04058  -1.03066  -1.02555  -1.01460
 Alpha  occ. eigenvalues --   -1.00195  -0.99173  -0.77610  -0.74619  -0.70699
 Alpha  occ. eigenvalues --   -0.65011  -0.62103  -0.57581  -0.55628  -0.54878
 Alpha  occ. eigenvalues --   -0.53688  -0.52875  -0.51968  -0.50365  -0.49378
 Alpha  occ. eigenvalues --   -0.46763  -0.46381  -0.45879  -0.44150  -0.42766
 Alpha  occ. eigenvalues --   -0.42289  -0.41287  -0.40254  -0.39751  -0.39145
 Alpha  occ. eigenvalues --   -0.37769  -0.36743  -0.35324  -0.34042  -0.33223
 Alpha  occ. eigenvalues --   -0.32119  -0.31923  -0.30066  -0.29673  -0.28777
 Alpha  occ. eigenvalues --   -0.27123  -0.25233  -0.25020
 Alpha virt. eigenvalues --   -0.04217   0.03231   0.04397   0.07078   0.08276
 Alpha virt. eigenvalues --    0.11674   0.12218   0.13201   0.13985   0.14734
 Alpha virt. eigenvalues --    0.15094   0.16016   0.16747   0.17971   0.18594

 Mulliken charges:
               1
     1  O   -0.689724
     2  C    0.123884
     3  C    0.061689
     4  C    0.110857
     5  C    0.247881
     6  C    0.070115
     7  H    0.117656
     8  H    0.140274
     9  H    0.132512
    10  H    0.131805
    11  C   -0.081955
    12  H    0.150514
    13  H    0.165671
    14  H    0.168895
    15  O   -0.420513
    16  O   -0.618557
    17  H    0.408354
    18  O   -0.657545
    19  H    0.439783
    20  O   -0.673006
    21  H    0.426726
    22  O   -0.703128
    23  H    0.429648
    24  O   -0.802530
    25  H    0.451772
    26  H    0.441886
    27  H    0.405469
    28  O   -0.799461
    29  H    0.391131
    30  H    0.429895
 Sum of Mulliken charges =  -0.00000

 Dipole moment (field-independent basis, Debye):
    X=              1.1240    Y=              3.5016    Z=              1.1406  Tot=              3.8504
 Quadrupole moment (field-independent basis, Debye-Ang):
   XX=            -84.9813   YY=            -81.7907   ZZ=            -84.4501
   XY=              6.0477   XZ=             13.1089   YZ=             -2.8053

  Exact polarizability: 100.177   2.262 100.428   2.321  -3.380  87.585
 Approx polarizability: 130.245   0.861 128.484   1.791  -5.968 140.402

                      1                      2                      3
                      A                      A                      A
 Frequencies --     25.8268                41.2903                56.7985
 Red. masses --      5.9688                 6.1741                 3.5879
 Frc consts  --      0.0023                 0.0062                 0.0068
 IR Inten    --      1.7556                 4.1684                 4.5054

                      4                      5                      6
                      A                      A                      A
 Frequencies --     72.6705                86.5702                97.5575
 Red. masses --      5.8908                 5.9065                 6.5534
 Frc consts  --      0.0183                 0.0261                 0.0367
 IR Inten    --      0.8867                 8.6169                 4.8653

                      7                      8                      9
                      A                      A                      A
 Frequencies --    134.2772               150.9513               171.7273
 Red. masses --      7.3903                 2.5669                 5.3772
 Frc consts  --      0.0785                 0.0345                 0.0934
 IR Inten    --      5.1824                 7.7921                11.0428

                     10                     11                     12
                      A                      A                      A
 Frequencies --    197.2080               201.2663               215.6577
 Red. masses --      4.8786                 3.4499                 3.0369
 Frc consts  --      0.1118                 0.0823                 0.0832
 IR Inten    --     23.7678                20.4907                18.2898

                     13                     14                     15
                      A                      A                      A
 Frequencies --    240.0799               254.2669               258.7894
 Red. masses --      1.8548                 4.5030                 5.5031
 Frc consts  --      0.0630                 0.1715                 0.2171
 IR Inten    --     41.1962                14.7586                 4.2295

                     16                     17                     18
                      A                      A                      A
 Frequencies --    264.7687               289.5015               322.3345
 Red. masses --      1.2068                 4.7263                 1.1675
 Frc consts  --      0.0498                 0.2334                 0.0715
 IR Inten    --     35.0500                 7.4273               126.5678

                     19                     20                     21
                      A                      A                      A
 Frequencies --    326.1895               355.5373               370.8155
 Red. masses --      2.7090                 1.5911                 3.1846
 Frc consts  --      0.1698                 0.1185                 0.2580
 IR Inten    --     10.0994                90.1440                32.3289

                     22                     23                     24
                      A                      A                      A
 Frequencies --    383.5644               386.8808               430.2405
 Red. masses --      2.4159                 1.3195                 5.1800
 Frc consts  --      0.2094                 0.1164                 0.5649
 IR Inten    --     55.2252               108.4577                14.0328

                     25                     26                     27
                      A                      A                      A
 Frequencies --    458.2415               479.1867               509.0622
 Red. masses --      4.4625                 5.2252                 2.9616
 Frc consts  --      0.5521                 0.7069                 0.4522
 IR Inten    --     46.4618                10.7815                 7.1321

                     28                     29                     30
                      A                      A                      A
 Frequencies --    540.3279               577.3047               587.2779
 Red. masses --      4.4095                 1.1890                 3.8572
 Frc consts  --      0.7585                 0.2335                 0.7838
 IR Inten    --      0.8862               175.1379                63.0684

                     31                     32                     33
                      A                      A                      A
 Frequencies --    676.7324               710.9198               726.8839
 Red. masses --      1.1020                 1.1020                 3.2511
 Frc consts  --      0.2974                 0.3282                 1.0121
 IR Inten    --    119.7976               245.2555                 7.3054

                     34                     35                     36
                      A                      A                      A
 Frequencies --    815.1668               855.2415               893.5635
 Red. masses --      1.0588                 2.1008                 1.8228
 Frc consts  --      0.4145                 0.9054                 0.8575
 IR Inten    --    146.4346                41.2120                 9.3252

                     37                     38                     39
                      A                      A                      A
 Frequencies --    898.5887               907.7166               965.5487
 Red. masses --      1.2861                 1.1425                 2.0676
 Frc consts  --      0.6119                 0.5546                 1.1357
 IR Inten    --    181.6726                94.6238                46.5441

                     40                     41                     42
                      A                      A                      A
 Frequencies --   1018.0934              1040.8752              1060.7293
 Red. masses --      2.4116                 5.5950                 2.8660
 Frc consts  --      1.4727                 3.5715                 1.8999
 IR Inten    --     24.7138                30.0494                46.8709

                     43                     44                     45
                      A                      A                      A
 Frequencies --   1074.8767              1090.4020              1104.8728
 Red. masses --      4.8667                 5.2500                 3.4264
 Frc consts  --      3.3129                 3.6778                 2.4644
 IR Inten    --    167.9128                46.0699                10.9462

                     46                     47                     48
                      A                      A                      A
 Frequencies --   1109.3570              1129.6025              1163.8718
 Red. masses --      3.1981                 2.9335                 1.9068
 Frc consts  --      2.3189                 2.2054                 1.5218
 IR Inten    --     41.2538                27.2501                12.3356

                     49                     50                     51
                      A                      A                      A
 Frequencies --   1203.5410              1276.9863              1280.7224
 Red. masses --      1.5453                 1.2404                 1.1470
 Frc consts  --      1.3188                 1.1918                 1.1085
 IR Inten    --     17.8647                33.5733                17.3182

                     52                     53                     54
                      A                      A                      A
 Frequencies --   1293.5446              1317.3620              1344.7665
 Red. masses --      1.2503                 1.2108                 1.1969
 Frc consts  --      1.2326                 1.2380                 1.2752
 IR Inten    --     16.8741                15.3348                 4.7108

                     55                     56                     57
                      A                      A                      A
 Frequencies --   1377.8865              1389.4360              1402.1296
 Red. masses --      1.4044                 1.3048                 1.2818
 Frc consts  --      1.5710                 1.4842                 1.4847
 IR Inten    --     28.0192                 7.0501                28.3925

                     58                     59                     60
                      A                      A                      A
 Frequencies --   1421.7469              1429.9344              1434.3426
 Red. masses --      1.2796                 1.1910                 1.2838
 Frc consts  --      1.5240                 1.4348                 1.5561
 IR Inten    --     22.5424                 8.5415                 9.0326

                     61                     62                     63
                      A                      A                      A
 Frequencies --   1468.1150              1490.0510              1497.7111
 Red. masses --      1.2812                 1.1860                 1.2105
 Frc consts  --      1.6269                 1.5515                 1.5999
 IR Inten    --     34.5773                53.7288                93.6116

                     64                     65                     66
                      A                      A                      A
 Frequencies --   1506.0296              1530.2501              1718.6842
 Red. masses --      1.2556                 1.0964                 1.0844
 Frc consts  --      1.6779                 1.5127                 1.8872
 IR Inten    --     61.5770                 5.5024                51.5512

                     67                     68                     69
                      A                      A                      A
 Frequencies --   1721.6442              1809.3045              2944.1014
 Red. masses --      1.0763                 9.2085                 1.0852
 Frc consts  --      1.8796                17.7609                 5.5419
 IR Inten    --     81.5782               148.9977               123.8322

                     70                     71                     72
                      A                      A                      A
 Frequencies --   2980.2050              3045.1908              3058.2453
 Red. masses --      1.0827                 1.0835                 1.0689
 Frc consts  --      5.6658                 5.9196                 5.8901
 IR Inten    --     34.1338                 1.8680                28.0802

                     73                     74                     75
                      A                      A                      A
 Frequencies --   3060.5522              3061.5246              3115.4225
 Red. masses --      1.0831                 1.0776                 1.1070
 Frc consts  --      5.9773                 5.9507                 6.3304
 IR Inten    --     20.3554                67.6906                34.5760

                     76                     77                     78
                      A                      A                      A
 Frequencies --   3375.4307              3464.9175              3514.9894
 Red. masses --      1.0691                 1.0670                 1.0663
 Frc consts  --      7.1768                 7.5473                 7.7622
 IR Inten    --    572.9204               273.2413               304.7612

                     79                     80                     81
                      A                      A                      A
 Frequencies --   3556.6802              3578.5617              3635.9838
 Red. masses --      1.0632                 1.0613                 1.0536
 Frc consts  --      7.9241                 8.0080                 8.2064
 IR Inten    --    829.1748               256.1771               253.4897

                     82                     83                     84
                      A                      A                      A
 Frequencies --   3736.8144              3796.1279              3810.1456
 Red. masses --      1.0662                 1.0703                 1.0736
 Frc consts  --      8.7719                 9.0875                 9.1828
 IR Inten    --     27.1713                65.4544                89.8883

 - Thermochemistry -
 -------------------
 Temperature   298.150 Kelvin.  Pressure   1.00000 Atm.
 Atom     1 has atomic number  8 and mass  15.99491

 Molecular mass:   216.08452 amu.
 Principal axes and moments of inertia in atomic units:
                           1         2         3
     Eigenvalues --  3048.739643244.356034833.88585
           X            0.99569  -0.09193   0.01193
           Y            0.09204   0.99572  -0.00893
           Z           -0.01105   0.00999   0.99989
 This molecule is an asymmetric top.
 Rotational symmetry number  1.
 Warning -- assumption of classical behavior for rotation
           may cause significant error
 Rotational temperatures (Kelvin)      0.02841     0.02670     0.01792
 Rotational constants (GHZ):           0.59196     0.55627     0.37335
 Zero-point vibrational energy     648246.2 (Joules/Mol)
                                  154.93455 (Kcal/Mol)
 Warning -- explicit consideration of  30 degrees of freedom as
           vibrations may cause significant error
 Vibrational temperatures:     37.16    59.41    81.72   104.56   124.56
          (Kelvin)            140.36   193.19   217.19   247.08   283.74
                              289.58   310.28   345.42   365.83   372.34
                              380.94   416.53   463.77   469.31   511.54
                              533.52   551.86   556.63   619.02   659.31
                              689.44   732.43   777.41   830.61   844.96
                              973.67  1022.85  1045.82  1172.84  1230.50
                             1285.64  1292.87  1306.00  1389.21  1464.81
                             1497.59  1526.15  1546.51  1568.84  1589.66
                             1596.12  1625.24  1674.55  1731.62  1837.30
                             1842.67  1861.12  1895.39  1934.82  1982.47
                             1999.09  2017.35  2045.57  2057.35  2063.70
                             2112.29  2143.85  2154.87  2166.84  2201.69
                             2472.80  2477.06  2603.18  4235.90  4287.84
                             4381.34  4400.13  4403.45  4404.85  4482.39
                             4856.49  4985.24  5057.28  5117.26  5148.75
                             5231.36  5376.44  5461.77  5481.94

 Zero-point correction=                           0.246904 (Hartree/Particle)
 Thermal correction to Energy=                    0.265233
 Thermal correction to Enthalpy=                  0.266178
 Thermal correction to Gibbs Free Energy=         0.200584
 Sum of electronic and zero-point Energies=           -839.746743
 Sum of electronic and thermal Energies=              -839.728413
 Sum of electronic and thermal Enthalpies=            -839.727469
 Sum of electronic and thermal Free Energies=         -839.793063

                     E (Thermal)             CV                S
                      KCal/Mol        Cal/Mol-Kelvin    Cal/Mol-Kelvin
 Total                  166.436             65.842            138.053
 Electronic               0.000              0.000              0.000
 Translational            0.889              2.981             42.015
 Rotational               0.889              2.981             32.236
 Vibrational            164.659             59.880             63.802
 Vibration     1          0.593              1.985              6.127
 Vibration     2          0.594              1.981              5.196
 Vibration     3          0.596              1.975              4.565
 Vibration     4          0.599              1.967              4.080
 Vibration     5          0.601              1.959              3.736
 Vibration     6          0.603              1.951              3.503
 Vibration     7          0.613              1.919              2.884
 Vibration     8          0.618              1.902              2.660
 Vibration     9          0.626              1.877              2.416
 Vibration    10          0.637              1.844              2.159
 Vibration    11          0.638              1.838              2.121
 Vibration    12          0.645              1.817              1.995
 Vibration    13          0.657              1.779              1.802
 Vibration    14          0.665              1.756              1.701
 Vibration    15          0.668              1.748              1.670
 Vibration    16          0.671              1.738              1.630
 Vibration    17          0.686              1.693              1.477
 Vibration    18          0.707              1.631              1.298
 Vibration    19          0.710              1.623              1.279
 Vibration    20          0.731              1.564              1.142
 Vibration    21          0.743              1.532              1.076
 Vibration    22          0.753              1.505              1.025
 Vibration    23          0.755              1.498              1.012
 Vibration    24          0.791              1.404              0.858
 Vibration    25          0.816              1.343              0.771
 Vibration    26          0.836              1.296              0.712
 Vibration    27          0.864              1.230              0.636
 Vibration    28          0.895              1.161              0.565
 Vibration    29          0.934              1.080              0.490
 Vibration    30          0.944              1.059              0.472

 Normal termination of Gaussian 09 at Mon Jan 16 00:10:57 2017.
