 Gaussian 09, Revision E.01,
 Gaussian 09:  ES64L-G09RevE.01 30-Nov-2015

 -------------------------------------
 # b3lyp/6-31g(d) irc=(calcfc,reverse)
 -------------------------------------

 ---------------------------------
 glo_1w_alpha_ts_boat2_B3LYP_631Gd
 ---------------------------------
 Symbolic Z-matrix:
 Charge =  0 Multiplicity = 1

 SCF Done:  E(RB3LYP) =  -839.960269526     A.U. after   14 cycles
 SCF Done:  E(RB3LYP) =  -839.960609292     A.U. after   11 cycles
 SCF Done:  E(RB3LYP) =  -839.961444945     A.U. after   11 cycles
 SCF Done:  E(RB3LYP) =  -839.962479040     A.U. after   12 cycles
 SCF Done:  E(RB3LYP) =  -839.963514299     A.U. after   11 cycles
 SCF Done:  E(RB3LYP) =  -839.964515145     A.U. after   11 cycles
 SCF Done:  E(RB3LYP) =  -839.965481829     A.U. after   11 cycles
 SCF Done:  E(RB3LYP) =  -839.966421663     A.U. after   11 cycles
 SCF Done:  E(RB3LYP) =  -839.967313467     A.U. after   11 cycles
 SCF Done:  E(RB3LYP) =  -839.967345203     A.U. after   10 cycles
 SCF Done:  E(RB3LYP) =  -839.968241928     A.U. after   11 cycles
 SCF Done:  E(RB3LYP) =  -839.969132245     A.U. after   11 cycles

                          Input orientation:
 ---------------------------------------------------------------------
 Center     Atomic      Atomic             Coordinates (Angstroms)
 Number     Number       Type             X           Y           Z
 ---------------------------------------------------------------------
      1          6           0       -1.507080   -1.393806   -0.360085
      2          8           0       -1.141063    0.323920   -0.854305
      3          1           0       -4.045252    0.597953   -1.509956
      4          8           0       -3.566920    0.697056   -0.672316
      5          1           0       -2.104554    0.688252   -0.854375
      6          6           0        1.062284    0.362461   -0.088540
      7          6           0       -0.306706    1.035339    0.064256
      8          1           0        1.399688    0.543818   -1.112947
      9          1           0       -0.680101    0.931302    1.089052
     10          8           0        2.053243    1.011312    0.744023
     11          1           0        1.856904    0.775249    1.667643
     12          6           0       -0.308850    2.510483   -0.338350
     13          8           0        0.402277    3.306959    0.584609
     14          1           0       -1.341461    2.877284   -0.344442
     15          1           0        0.082856    2.601566   -1.366120
     16          1           0        1.286622    2.908261    0.662926
     17          1           0       -1.452084   -1.719552   -1.408150
     18          8           0       -2.609829   -1.377075    0.259682
     19          1           0       -3.509852   -0.225167   -0.269268
     20          8           0        4.011668   -0.576306   -0.627332
     21          1           0        4.424899   -0.064062   -1.338233
     22          1           0        3.602231    0.090821   -0.039982
     23          6           0        1.061528   -1.181743    0.117904
     24          1           0        1.714614   -1.388431    0.981831
     25          6           0       -0.300553   -1.759552    0.503837
     26          1           0       -0.212486   -2.855716    0.409715
     27          8           0       -0.572523   -1.381080    1.839560
     28          1           0       -1.554307   -1.361688    1.872396
     29          8           0        1.525693   -1.860162   -1.029851
     30          1           0        2.471967   -1.612446   -1.111882
 ---------------------------------------------------------------------

 Alpha  occ. eigenvalues --  -19.19828 -19.18926 -19.16552 -19.16324 -19.14215
 Alpha  occ. eigenvalues --  -19.14192 -19.13546 -19.12424 -10.28834 -10.25750
 Alpha  occ. eigenvalues --  -10.25253 -10.24569 -10.23883 -10.23796  -1.07907
 Alpha  occ. eigenvalues --   -1.06243  -1.03504  -1.02366  -1.02244  -1.01673
 Alpha  occ. eigenvalues --   -1.01140  -0.99631  -0.78740  -0.75433  -0.69501
 Alpha  occ. eigenvalues --   -0.65132  -0.62989  -0.57792  -0.56351  -0.54691
 Alpha  occ. eigenvalues --   -0.54396  -0.53649  -0.52292  -0.50851  -0.49777
 Alpha  occ. eigenvalues --   -0.48228  -0.47319  -0.44758  -0.44355  -0.42653
 Alpha  occ. eigenvalues --   -0.42192  -0.41556  -0.40323  -0.39651  -0.38747
 Alpha  occ. eigenvalues --   -0.37891  -0.36083  -0.35824  -0.35009  -0.33915
 Alpha  occ. eigenvalues --   -0.32409  -0.31273  -0.30628  -0.29081  -0.27840
 Alpha  occ. eigenvalues --   -0.26491  -0.25986  -0.24994
 Alpha virt. eigenvalues --    0.02262   0.03740   0.06079   0.06243   0.09263
 Alpha virt. eigenvalues --    0.09516   0.11108   0.12152   0.13388   0.14285
 Alpha virt. eigenvalues --    0.15542   0.16661   0.17506   0.18350   0.18721

 Mulliken charges:
               1
     1  C    0.307332
     2  O   -0.648671
     3  H    0.404050
     4  O   -0.812144
     5  H    0.465741
     6  C    0.084768
     7  C    0.083858
     8  H    0.159516
     9  H    0.162857
    10  O   -0.658707
    11  H    0.418754
    12  C   -0.044387
    13  O   -0.632023
    14  H    0.159960
    15  H    0.122187
    16  H    0.406449
    17  H    0.143144
    18  O   -0.595994
    19  H    0.448302
    20  O   -0.805780
    21  H    0.399662
    22  H    0.426319
    23  C    0.122743
    24  H    0.132353
    25  C    0.081599
    26  H    0.156769
    27  O   -0.664484
    28  H    0.414071
    29  O   -0.668023
    30  H    0.429780
 Sum of Mulliken charges =  -0.00000

 Dipole moment (field-independent basis, Debye):
    X=              0.9681    Y=              1.1262    Z=             -2.2981  Tot=              2.7362
 Quadrupole moment (field-independent basis, Debye-Ang):
   XX=            -74.5462   YY=            -98.0313   ZZ=            -79.4663
   XY=              5.9160   XZ=              5.3271   YZ=             -3.0796

  Exact polarizability:   0.000   0.000   0.000   0.000   0.000   0.000
 Approx polarizability: 142.734   3.085 129.253  -3.085   2.094 131.726

 Normal termination of Gaussian 09 at Sat Jan 14 01:10:44 2017.
