 Gaussian 09, Revision E.01,
 Gaussian 09:  ES64L-G09RevE.01 30-Nov-2015

 -------------------------------------
 # b3lyp/6-31g(d) irc=(calcfc,forward)
 -------------------------------------

 --------------------------------
 glo_2w_beta_ts_boat2_B3LYP_631Gd
 --------------------------------
 Symbolic Z-matrix:
 Charge =  0 Multiplicity = 1

 SCF Done:  E(RB3LYP) =  -839.955186678     A.U. after   14 cycles
 SCF Done:  E(RB3LYP) =  -839.955447185     A.U. after   11 cycles
 SCF Done:  E(RB3LYP) =  -839.956192656     A.U. after   12 cycles
 SCF Done:  E(RB3LYP) =  -839.957344024     A.U. after   12 cycles
 SCF Done:  E(RB3LYP) =  -839.958701849     A.U. after   12 cycles
 SCF Done:  E(RB3LYP) =  -839.960012357     A.U. after   12 cycles
 SCF Done:  E(RB3LYP) =  -839.961135695     A.U. after   12 cycles
 SCF Done:  E(RB3LYP) =  -839.962144251     A.U. after   11 cycles
 SCF Done:  E(RB3LYP) =  -839.963091470     A.U. after   11 cycles
 SCF Done:  E(RB3LYP) =  -839.963998717     A.U. after   11 cycles
 SCF Done:  E(RB3LYP) =  -839.964821090     A.U. after   11 cycles
 SCF Done:  E(RB3LYP) =  -839.964873916     A.U. after   10 cycles
 SCF Done:  E(RB3LYP) =  -839.964866591     A.U. after   10 cycles

                          Input orientation:
 ---------------------------------------------------------------------
 Center     Atomic      Atomic             Coordinates (Angstroms)
 Number     Number       Type             X           Y           Z
 ---------------------------------------------------------------------
      1          6           0        1.002233   -0.361121   -1.444454
      2          8           0       -0.321874    0.781965   -0.773630
      3          1           0        0.623582    3.169387    0.944069
      4          1           0        2.997698    0.663494    1.066051
      5          8           0        3.041707    1.378454    0.405553
      6          1           0        1.806998    2.047021    0.692561
      7          8           0        0.794781    2.216564    0.911625
      8          1           0        0.089825    1.476507   -0.147199
      9          6           0       -1.105121   -0.838690    0.953824
     10          6           0       -1.449485    0.130028   -0.214601
     11          1           0       -1.350284   -0.372076    1.916499
     12          1           0       -1.854043   -0.487144   -1.028401
     13          8           0       -1.933641   -1.991135    0.872430
     14          1           0       -1.618770   -2.469553    0.083201
     15          6           0       -2.500134    1.154331    0.206889
     16          8           0       -2.896462    2.035613   -0.826011
     17          1           0       -2.084295    1.791845    0.995859
     18          1           0       -3.351544    0.605599    0.640862
     19          1           0       -3.277905    1.506592   -1.544053
     20          1           0        2.784666    0.913214   -0.449855
     21          6           0        0.974543   -1.502493   -0.395964
     22          1           0        2.019627   -1.819318   -0.285141
     23          6           0        0.391741   -1.224927    1.008868
     24          1           0        0.425687   -2.177253    1.554368
     25          8           0        0.194969   -2.554062   -1.007029
     26          1           0        0.521275   -3.402795   -0.669885
     27          8           0        1.197564   -0.320118    1.752354
     28          1           0        0.812527    0.577324    1.732887
     29          8           0        2.007426    0.345831   -1.622671
     30          1           0        0.352516   -0.597712   -2.302541
 ---------------------------------------------------------------------

 Alpha  occ. eigenvalues --  -19.18382 -19.17045 -19.16751 -19.15847 -19.15300
 Alpha  occ. eigenvalues --  -19.15183 -19.13984 -19.11817 -10.28493 -10.25549
 Alpha  occ. eigenvalues --  -10.25340 -10.25129 -10.25078 -10.24274  -1.06796
 Alpha  occ. eigenvalues --   -1.05075  -1.03513  -1.03155  -1.02384  -1.01999
 Alpha  occ. eigenvalues --   -1.01702  -0.98886  -0.78332  -0.75982  -0.69835
 Alpha  occ. eigenvalues --   -0.65925  -0.63092  -0.59068  -0.56198  -0.55173
 Alpha  occ. eigenvalues --   -0.53459  -0.53114  -0.52597  -0.50878  -0.49413
 Alpha  occ. eigenvalues --   -0.48276  -0.46203  -0.45440  -0.44123  -0.43805
 Alpha  occ. eigenvalues --   -0.42666  -0.41794  -0.40706  -0.39237  -0.38820
 Alpha  occ. eigenvalues --   -0.37273  -0.36797  -0.35699  -0.33961  -0.33428
 Alpha  occ. eigenvalues --   -0.32007  -0.31877  -0.30330  -0.29654  -0.28695
 Alpha  occ. eigenvalues --   -0.26985  -0.25784  -0.24195
 Alpha virt. eigenvalues --    0.01734   0.03623   0.05322   0.06756   0.08914
 Alpha virt. eigenvalues --    0.10500   0.11307   0.11317   0.13365   0.14091
 Alpha virt. eigenvalues --    0.14965   0.15571   0.16090   0.17469   0.18251

 Mulliken charges:
               1
     1  C    0.335769
     2  O   -0.634421
     3  H    0.415361
     4  H    0.408557
     5  O   -0.833733
     6  H    0.453631
     7  O   -0.854165
     8  H    0.463500
     9  C    0.062288
    10  C    0.109935
    11  H    0.150272
    12  H    0.138018
    13  O   -0.642067
    14  H    0.401534
    15  C   -0.060704
    16  O   -0.606831
    17  H    0.148094
    18  H    0.146307
    19  H    0.392602
    20  H    0.444972
    21  C    0.030263
    22  H    0.153086
    23  C    0.116879
    24  H    0.140310
    25  O   -0.642382
    26  H    0.409779
    27  O   -0.680272
    28  H    0.433578
    29  O   -0.540991
    30  H    0.140829
 Sum of Mulliken charges =  -0.00000

 Dipole moment (field-independent basis, Debye):
    X=             -1.5169    Y=             -1.9637    Z=              0.8236  Tot=              2.6145
 Quadrupole moment (field-independent basis, Debye-Ang):
   XX=            -92.0332   YY=            -74.2735   ZZ=            -88.4784
   XY=             -5.4599   XZ=              6.6532   YZ=              7.0901

  Exact polarizability:   0.000   0.000   0.000   0.000   0.000   0.000
 Approx polarizability: 142.825   7.146 137.999  -0.215   4.332 124.882

 Normal termination of Gaussian 09 at Sat Jan 14 01:26:59 2017.
