 Gaussian 09, Revision E.01,
 Gaussian 09:  ES64L-G09RevE.01 30-Nov-2015

 -------------------------------------
 # b3lyp/6-31g(d) irc=(calcfc,reverse)
 -------------------------------------

 --------------------------------
 glo_2w_beta_ts_boat2_B3LYP_631Gd
 --------------------------------
 Symbolic Z-matrix:
 Charge =  0 Multiplicity = 1

 SCF Done:  E(RB3LYP) =  -839.955186678     A.U. after   14 cycles
 SCF Done:  E(RB3LYP) =  -839.955470325     A.U. after   11 cycles
 SCF Done:  E(RB3LYP) =  -839.956366172     A.U. after   11 cycles
 SCF Done:  E(RB3LYP) =  -839.957908985     A.U. after   11 cycles
 SCF Done:  E(RB3LYP) =  -839.960021328     A.U. after   11 cycles
 SCF Done:  E(RB3LYP) =  -839.962533366     A.U. after   12 cycles
 SCF Done:  E(RB3LYP) =  -839.965161289     A.U. after   12 cycles
 SCF Done:  E(RB3LYP) =  -839.967585219     A.U. after   12 cycles
 SCF Done:  E(RB3LYP) =  -839.969640353     A.U. after   11 cycles
 SCF Done:  E(RB3LYP) =  -839.971441471     A.U. after   11 cycles
 SCF Done:  E(RB3LYP) =  -839.973117663     A.U. after   11 cycles

                          Input orientation:
 ---------------------------------------------------------------------
 Center     Atomic      Atomic             Coordinates (Angstroms)
 Number     Number       Type             X           Y           Z
 ---------------------------------------------------------------------
      1          6           0        0.916554   -0.308548   -1.382647
      2          8           0       -0.270511    0.752722   -0.776328
      3          1           0        0.490691    3.129157    0.904002
      4          1           0        2.992406    0.670565    1.072423
      5          8           0        3.028273    1.367618    0.392690
      6          1           0        2.226433    1.917700    0.616798
      7          8           0        0.761617    2.199435    0.890433
      8          1           0        0.289965    1.730027    0.102425
      9          6           0       -1.104925   -0.839332    0.951186
     10          6           0       -1.429898    0.122117   -0.230728
     11          1           0       -1.351555   -0.367320    1.910709
     12          1           0       -1.873120   -0.498959   -1.026649
     13          8           0       -1.933244   -1.992599    0.874461
     14          1           0       -1.629659   -2.465213    0.077977
     15          6           0       -2.484333    1.155288    0.200690
     16          8           0       -2.897274    2.035836   -0.826149
     17          1           0       -2.069899    1.793039    0.989624
     18          1           0       -3.328323    0.594906    0.635538
     19          1           0       -3.273082    1.503361   -1.544594
     20          1           0        2.515904    0.708527   -0.754120
     21          6           0        0.967215   -1.496944   -0.395518
     22          1           0        2.018401   -1.800245   -0.306556
     23          6           0        0.391918   -1.226640    1.012393
     24          1           0        0.429232   -2.177763    1.559157
     25          8           0        0.196428   -2.553012   -1.008771
     26          1           0        0.518348   -3.399001   -0.659868
     27          8           0        1.198859   -0.317482    1.750733
     28          1           0        0.816935    0.582382    1.718741
     29          8           0        2.024460    0.370428   -1.601469
     30          1           0        0.429893   -0.600703   -2.315517
 ---------------------------------------------------------------------

 Alpha  occ. eigenvalues --  -19.18533 -19.16184 -19.15785 -19.15637 -19.15014
 Alpha  occ. eigenvalues --  -19.14876 -19.14613 -19.14254 -10.30244 -10.26060
 Alpha  occ. eigenvalues --  -10.25113 -10.24677 -10.24501 -10.24078  -1.06705
 Alpha  occ. eigenvalues --   -1.05019  -1.03706  -1.02756  -1.02448  -1.01891
 Alpha  occ. eigenvalues --   -1.00710  -0.98388  -0.77803  -0.76215  -0.70076
 Alpha  occ. eigenvalues --   -0.65885  -0.62845  -0.60162  -0.55931  -0.55589
 Alpha  occ. eigenvalues --   -0.53218  -0.53191  -0.52581  -0.50999  -0.49930
 Alpha  occ. eigenvalues --   -0.48240  -0.45990  -0.45084  -0.44380  -0.43673
 Alpha  occ. eigenvalues --   -0.43238  -0.40922  -0.40175  -0.39257  -0.38324
 Alpha  occ. eigenvalues --   -0.37522  -0.36142  -0.35761  -0.33916  -0.32873
 Alpha  occ. eigenvalues --   -0.32434  -0.31211  -0.30430  -0.29379  -0.29008
 Alpha  occ. eigenvalues --   -0.27191  -0.26229  -0.25415
 Alpha virt. eigenvalues --    0.02780   0.03625   0.06062   0.07233   0.09098
 Alpha virt. eigenvalues --    0.10840   0.11428   0.11798   0.13242   0.14541
 Alpha virt. eigenvalues --    0.15176   0.15399   0.16366   0.17405   0.18271

 Mulliken charges:
               1
     1  C    0.334455
     2  O   -0.609443
     3  H    0.411594
     4  H    0.410407
     5  O   -0.825979
     6  H    0.442639
     7  O   -0.854231
     8  H    0.464849
     9  C    0.061224
    10  C    0.132343
    11  H    0.149357
    12  H    0.121528
    13  O   -0.642426
    14  H    0.399955
    15  C   -0.060187
    16  O   -0.608614
    17  H    0.143336
    18  H    0.146834
    19  H    0.391928
    20  H    0.451242
    21  C    0.035413
    22  H    0.154772
    23  C    0.120628
    24  H    0.138542
    25  O   -0.640899
    26  H    0.409666
    27  O   -0.684007
    28  H    0.435004
    29  O   -0.602196
    30  H    0.172265
 Sum of Mulliken charges =  -0.00000

 Dipole moment (field-independent basis, Debye):
    X=             -1.0739    Y=             -2.0929    Z=              0.4604  Tot=              2.3970
 Quadrupole moment (field-independent basis, Debye-Ang):
   XX=            -91.9353   YY=            -74.9376   ZZ=            -87.9384
   XY=             -5.6009   XZ=              6.1737   YZ=              7.0519

  Exact polarizability:   0.000   0.000   0.000   0.000   0.000   0.000
 Approx polarizability: 140.383   2.724 138.479  -0.093   6.447 124.877

 Normal termination of Gaussian 09 at Sat Jan 14 01:12:51 2017.
