 Gaussian 09, Revision E.01,
 Gaussian 09:  ES64L-G09RevE.01 30-Nov-2015

 -------------------------------------
 # b3lyp/6-31g(d) irc=(calcfc,forward)
 -------------------------------------

 --------------------------------
 glo_1w_beta_ts_boat2_B3LYP_631Gd
 --------------------------------
 Symbolic Z-matrix:
 Charge =  0 Multiplicity = 1

 SCF Done:  E(RB3LYP) =  -839.950628744     A.U. after   14 cycles
 SCF Done:  E(RB3LYP) =  -839.951067525     A.U. after   11 cycles
 SCF Done:  E(RB3LYP) =  -839.952336709     A.U. after   12 cycles
 SCF Done:  E(RB3LYP) =  -839.954257271     A.U. after   12 cycles
 SCF Done:  E(RB3LYP) =  -839.956509540     A.U. after   12 cycles
 SCF Done:  E(RB3LYP) =  -839.958723436     A.U. after   12 cycles
 SCF Done:  E(RB3LYP) =  -839.960687856     A.U. after   12 cycles
 SCF Done:  E(RB3LYP) =  -839.962464107     A.U. after   11 cycles
 SCF Done:  E(RB3LYP) =  -839.964134814     A.U. after   11 cycles
 SCF Done:  E(RB3LYP) =  -839.965742688     A.U. after   11 cycles
 SCF Done:  E(RB3LYP) =  -839.967300363     A.U. after   11 cycles

                          Input orientation:
 ---------------------------------------------------------------------
 Center     Atomic      Atomic             Coordinates (Angstroms)
 Number     Number       Type             X           Y           Z
 ---------------------------------------------------------------------
      1          6           0        1.627039   -0.573794   -1.073908
      2          8           0        0.945954    1.003970   -0.849708
      3          1           0        3.333559    1.965521    0.513676
      4          8           0        2.873732   -0.535425   -0.607353
      5          1           0        2.907106    0.025230    0.239527
      6          8           0        2.651703    1.371100    0.863948
      7          1           0        1.880373    1.466370    0.229915
      8          6           0       -0.666876    0.298312    0.833346
      9          6           0       -0.430151    1.030410   -0.502233
     10          6           0       -0.925471    2.488044   -0.444598
     11          8           0       -2.344136    2.548097   -0.186317
     12          8           0       -2.071146    0.085029    1.057262
     13          1           0        1.595388   -0.648387   -2.162973
     14          1           0       -2.504460    0.936445    0.835099
     15          1           0       -0.267198    0.925061    1.647260
     16          1           0       -1.004799    0.505225   -1.275601
     17          1           0       -0.674881    3.005282   -1.378582
     18          1           0       -0.453821    3.028897    0.382088
     19          1           0       -2.801545    2.314451   -1.010327
     20          8           0       -2.824901   -2.265158   -0.227800
     21          1           0       -2.732799   -1.405720    0.244450
     22          1           0       -3.010015   -2.912997    0.468165
     23          6           0        0.059575   -1.069830    0.909271
     24          1           0       -0.691406   -1.807445    1.230584
     25          6           0        0.628705   -1.551664   -0.441284
     26          1           0        1.189974   -2.479124   -0.241809
     27          8           0        1.155397   -1.056047    1.812675
     28          1           0        0.845156   -0.722572    2.668380
     29          8           0       -0.381503   -1.746216   -1.410399
     30          1           0       -1.176093   -2.160771   -1.002444
 ---------------------------------------------------------------------

 Alpha  occ. eigenvalues --  -19.18580 -19.16547 -19.15282 -19.15210 -19.15017
 Alpha  occ. eigenvalues --  -19.13633 -19.13506 -19.13021 -10.29017 -10.25226
 Alpha  occ. eigenvalues --  -10.24701 -10.24523 -10.24044 -10.23704  -1.05793
 Alpha  occ. eigenvalues --   -1.05077  -1.03615  -1.02430  -1.01217  -1.00175
 Alpha  occ. eigenvalues --   -0.99753  -0.98384  -0.77071  -0.75428  -0.70228
 Alpha  occ. eigenvalues --   -0.65131  -0.62383  -0.57978  -0.55544  -0.53779
 Alpha  occ. eigenvalues --   -0.53153  -0.52472  -0.51532  -0.50373  -0.49096
 Alpha  occ. eigenvalues --   -0.47778  -0.45876  -0.45623  -0.43799  -0.41699
 Alpha  occ. eigenvalues --   -0.41595  -0.40881  -0.40485  -0.38781  -0.38162
 Alpha  occ. eigenvalues --   -0.36977  -0.35615  -0.34430  -0.33859  -0.33345
 Alpha  occ. eigenvalues --   -0.30622  -0.30431  -0.30085  -0.28090  -0.27944
 Alpha  occ. eigenvalues --   -0.27249  -0.25335  -0.24815
 Alpha virt. eigenvalues --    0.02641   0.04660   0.06523   0.06851   0.08441
 Alpha virt. eigenvalues --    0.09640   0.11052   0.12874   0.13645   0.14646
 Alpha virt. eigenvalues --    0.15184   0.16955   0.17364   0.18901   0.20042

 Mulliken charges:
               1
     1  C    0.321334
     2  O   -0.620543
     3  H    0.390336
     4  O   -0.611333
     5  H    0.464437
     6  O   -0.821508
     7  H    0.432347
     8  C    0.100990
     9  C    0.126280
    10  C   -0.080672
    11  O   -0.623335
    12  O   -0.683207
    13  H    0.170999
    14  H    0.424470
    15  H    0.129911
    16  H    0.150366
    17  H    0.158046
    18  H    0.162669
    19  H    0.408585
    20  O   -0.812733
    21  H    0.431383
    22  H    0.395017
    23  C    0.078511
    24  H    0.118917
    25  C    0.100333
    26  H    0.151668
    27  O   -0.620814
    28  H    0.398943
    29  O   -0.676147
    30  H    0.434752
 Sum of Mulliken charges =  -0.00000

 Dipole moment (field-independent basis, Debye):
    X=             -2.4280    Y=              1.9591    Z=              1.3415  Tot=              3.3960
 Quadrupole moment (field-independent basis, Debye-Ang):
   XX=            -84.6859   YY=            -77.9126   ZZ=            -82.6121
   XY=              5.0359   XZ=             -1.2143   YZ=             -8.9263

  Exact polarizability:   0.000   0.000   0.000   0.000   0.000   0.000
 Approx polarizability: 146.326  -2.309 133.744   5.549   3.085 124.604

 Normal termination of Gaussian 09 at Sat Jan 14 01:11:23 2017.
