 Gaussian 09, Revision E.01,
 Gaussian 09:  ES64L-G09RevE.01 30-Nov-2015

 -------------------------------------
 # b3lyp/6-31g(d) irc=(calcfc,forward)
 -------------------------------------

 ---------------------------------
 glo_2w_alpha_ts_boat2_B3LYP_631Gd
 ---------------------------------
 Symbolic Z-matrix:
 Charge =  0 Multiplicity = 1

 SCF Done:  E(RB3LYP) =  -839.984801921     A.U. after   14 cycles
 SCF Done:  E(RB3LYP) =  -839.984853453     A.U. after   11 cycles
 SCF Done:  E(RB3LYP) =  -839.985027749     A.U. after   11 cycles
 SCF Done:  E(RB3LYP) =  -839.985038843     A.U. after   10 cycles
 SCF Done:  E(RB3LYP) =  -839.985405529     A.U. after   11 cycles
 SCF Done:  E(RB3LYP) =  -839.985435052     A.U. after   11 cycles
 SCF Done:  E(RB3LYP) =  -839.985443611     A.U. after   10 cycles
 SCF Done:  E(RB3LYP) =  -839.986165211     A.U. after   12 cycles
 SCF Done:  E(RB3LYP) =  -839.986213852     A.U. after   11 cycles
 SCF Done:  E(RB3LYP) =  -839.986225504     A.U. after    9 cycles
 SCF Done:  E(RB3LYP) =  -839.987287404     A.U. after   12 cycles
 SCF Done:  E(RB3LYP) =  -839.987324106     A.U. after   10 cycles
 SCF Done:  E(RB3LYP) =  -839.988323299     A.U. after   12 cycles
 SCF Done:  E(RB3LYP) =  -839.988395437     A.U. after   11 cycles
 SCF Done:  E(RB3LYP) =  -839.988392732     A.U. after   10 cycles
 SCF Done:  E(RB3LYP) =  -839.989426365     A.U. after   11 cycles
 SCF Done:  E(RB3LYP) =  -839.990430318     A.U. after   11 cycles
 SCF Done:  E(RB3LYP) =  -839.990436333     A.U. after   10 cycles
 SCF Done:  E(RB3LYP) =  -839.991417302     A.U. after   11 cycles
 SCF Done:  E(RB3LYP) =  -839.992370349     A.U. after   11 cycles

                          Input orientation:
 ---------------------------------------------------------------------
 Center     Atomic      Atomic             Coordinates (Angstroms)
 Number     Number       Type             X           Y           Z
 ---------------------------------------------------------------------
      1          6           0        0.039026   -1.609895    0.319535
      2          8           0        0.393189    0.172356    0.853097
      3          1           0        2.912104    1.202941    0.442702
      4          1           0        3.733859   -2.422368   -0.039234
      5          8           0        3.354212   -1.663217   -0.505658
      6          1           0        3.216436   -0.358253    0.437122
      7          8           0        2.858418    0.394344    0.993633
      8          1           0        1.445831    0.236841    0.941953
      9          6           0       -1.652069    1.048884   -0.060076
     10          6           0       -0.108712    1.020282   -0.189272
     11          1           0       -1.961140    1.892486    0.569401
     12          1           0        0.140764    0.568875   -1.159911
     13          8           0       -2.240498    1.254986   -1.331855
     14          1           0       -2.172910    0.387273   -1.777899
     15          6           0        0.516955    2.404046   -0.109834
     16          8           0        1.894826    2.434336   -0.513331
     17          1           0        0.502947    2.760108    0.924520
     18          1           0       -0.074725    3.095411   -0.723479
     19          1           0        1.929914    2.281330   -1.471070
     20          1           0        0.334867   -1.952929    1.319760
     21          8           0        0.745437   -1.859272   -0.686141
     22          1           0        2.390271   -1.878170   -0.628929
     23          6           0       -1.477331   -1.490493    0.052479
     24          1           0       -1.939896   -2.383685    0.502774
     25          6           0       -2.165163   -0.237207    0.633597
     26          1           0       -3.235978   -0.308625    0.419380
     27          8           0       -1.661080   -1.490599   -1.357548
     28          1           0       -0.783145   -1.766271   -1.707472
     29          8           0       -2.044170   -0.181181    2.045287
     30          1           0       -1.109590    0.024165    2.221527
 ---------------------------------------------------------------------

 Alpha  occ. eigenvalues --  -19.18673 -19.18378 -19.15662 -19.15284 -19.14992
 Alpha  occ. eigenvalues --  -19.14744 -19.14546 -19.14003 -10.30087 -10.25727
 Alpha  occ. eigenvalues --  -10.25457 -10.24796 -10.24296 -10.24188  -1.07632
 Alpha  occ. eigenvalues --   -1.05656  -1.04044  -1.03080  -1.01771  -1.01542
 Alpha  occ. eigenvalues --   -1.01030  -0.99595  -0.78303  -0.76021  -0.69923
 Alpha  occ. eigenvalues --   -0.65692  -0.62422  -0.57696  -0.56458  -0.55283
 Alpha  occ. eigenvalues --   -0.53968  -0.53400  -0.52496  -0.51744  -0.49315
 Alpha  occ. eigenvalues --   -0.48503  -0.46869  -0.45816  -0.44318  -0.43291
 Alpha  occ. eigenvalues --   -0.42948  -0.42138  -0.40714  -0.39242  -0.39084
 Alpha  occ. eigenvalues --   -0.37686  -0.36730  -0.35640  -0.34220  -0.32793
 Alpha  occ. eigenvalues --   -0.32238  -0.31494  -0.30969  -0.30504  -0.28746
 Alpha  occ. eigenvalues --   -0.27443  -0.27161  -0.25100
 Alpha virt. eigenvalues --    0.00548   0.04221   0.06717   0.07031   0.09790
 Alpha virt. eigenvalues --    0.10696   0.11663   0.12967   0.13172   0.13379
 Alpha virt. eigenvalues --    0.14646   0.15602   0.16262   0.17377   0.19034

 Mulliken charges:
               1
     1  C    0.303151
     2  O   -0.681513
     3  H    0.429943
     4  H    0.398238
     5  O   -0.825035
     6  H    0.439081
     7  O   -0.854593
     8  H    0.468240
     9  C    0.086832
    10  C    0.124655
    11  H    0.147410
    12  H    0.132977
    13  O   -0.652025
    14  H    0.418376
    15  C   -0.088176
    16  O   -0.628800
    17  H    0.172661
    18  H    0.170533
    19  H    0.408630
    20  H    0.139215
    21  O   -0.563656
    22  H    0.441843
    23  C    0.069737
    24  H    0.151412
    25  C    0.109657
    26  H    0.162509
    27  O   -0.669390
    28  H    0.421614
    29  O   -0.643394
    30  H    0.409869
 Sum of Mulliken charges =  -0.00000

 Dipole moment (field-independent basis, Debye):
    X=              2.3522    Y=             -0.4781    Z=             -0.4702  Tot=              2.4459
 Quadrupole moment (field-independent basis, Debye-Ang):
   XX=            -93.4558   YY=            -77.3481   ZZ=            -86.9055
   XY=             -2.0812   XZ=             -1.2495   YZ=             -4.6624

  Exact polarizability:   0.000   0.000   0.000   0.000   0.000   0.000
 Approx polarizability: 136.849  -4.932 129.845  -1.422   4.503 138.044

 Normal termination of Gaussian 09 at Sat Jan 14 01:43:08 2017.
