 Gaussian 09, Revision E.01,
 Gaussian 09:  ES64L-G09RevE.01 30-Nov-2015

 -------------------------------------
 # b3lyp/6-31g(d) irc=(calcfc,reverse)
 -------------------------------------

 --------------------------------
 glo_1w_beta_ts_boat2_B3LYP_631Gd
 --------------------------------
 Symbolic Z-matrix:
 Charge =  0 Multiplicity = 1

 SCF Done:  E(RB3LYP) =  -839.950628744     A.U. after   14 cycles
 SCF Done:  E(RB3LYP) =  -839.951053654     A.U. after   12 cycles
 SCF Done:  E(RB3LYP) =  -839.952229788     A.U. after   12 cycles
 SCF Done:  E(RB3LYP) =  -839.953905400     A.U. after   12 cycles
 SCF Done:  E(RB3LYP) =  -839.955725317     A.U. after   12 cycles
 SCF Done:  E(RB3LYP) =  -839.957392311     A.U. after   12 cycles
 SCF Done:  E(RB3LYP) =  -839.958861663     A.U. after   11 cycles
 SCF Done:  E(RB3LYP) =  -839.960205023     A.U. after   11 cycles
 SCF Done:  E(RB3LYP) =  -839.961472218     A.U. after   11 cycles
 SCF Done:  E(RB3LYP) =  -839.962673229     A.U. after   11 cycles
 SCF Done:  E(RB3LYP) =  -839.962687555     A.U. after   10 cycles
 SCF Done:  E(RB3LYP) =  -839.963853296     A.U. after   11 cycles

                          Input orientation:
 ---------------------------------------------------------------------
 Center     Atomic      Atomic             Coordinates (Angstroms)
 Number     Number       Type             X           Y           Z
 ---------------------------------------------------------------------
      1          6           0        1.714965   -0.679785   -1.093624
      2          8           0        0.927867    1.068256   -0.836963
      3          1           0        3.355222    1.938465    0.507898
      4          8           0        2.857329   -0.557810   -0.624678
      5          1           0        2.907832    0.444259    0.558437
      6          8           0        2.660011    1.365846    0.869131
      7          1           0        1.535799    1.381099   -0.071519
      8          6           0       -0.666933    0.299507    0.835924
      9          6           0       -0.439013    1.050200   -0.488652
     10          6           0       -0.936647    2.492298   -0.442491
     11          8           0       -2.349135    2.550519   -0.185589
     12          8           0       -2.070618    0.085873    1.055716
     13          1           0        1.548116   -0.590532   -2.180437
     14          1           0       -2.506034    0.938175    0.840641
     15          1           0       -0.270512    0.922782    1.654533
     16          1           0       -0.953672    0.501872   -1.283312
     17          1           0       -0.679664    3.003211   -1.378521
     18          1           0       -0.460608    3.034748    0.381730
     19          1           0       -2.807616    2.321310   -1.009951
     20          8           0       -2.825431   -2.265628   -0.227773
     21          1           0       -2.733209   -1.407531    0.245409
     22          1           0       -3.010755   -2.914522    0.467143
     23          6           0        0.062782   -1.068251    0.907395
     24          1           0       -0.691116   -1.803330    1.228946
     25          6           0        0.631064   -1.559834   -0.440456
     26          1           0        1.159155   -2.503534   -0.223864
     27          8           0        1.155016   -1.053793    1.813923
     28          1           0        0.836971   -0.735575    2.672834
     29          8           0       -0.381579   -1.742823   -1.410610
     30          1           0       -1.172172   -2.166512   -1.005897
 ---------------------------------------------------------------------

 Alpha  occ. eigenvalues --  -19.18647 -19.16883 -19.16251 -19.15284 -19.15033
 Alpha  occ. eigenvalues --  -19.15006 -19.12806 -19.10388 -10.26557 -10.25283
 Alpha  occ. eigenvalues --  -10.25126 -10.24629 -10.24552 -10.23097  -1.06349
 Alpha  occ. eigenvalues --   -1.05042  -1.03819  -1.02613  -1.01169  -1.00961
 Alpha  occ. eigenvalues --   -1.00177  -0.99338  -0.77904  -0.74945  -0.69695
 Alpha  occ. eigenvalues --   -0.65239  -0.62250  -0.57411  -0.54995  -0.53890
 Alpha  occ. eigenvalues --   -0.53039  -0.52977  -0.51635  -0.50380  -0.48941
 Alpha  occ. eigenvalues --   -0.48459  -0.46338  -0.45373  -0.43251  -0.41907
 Alpha  occ. eigenvalues --   -0.41645  -0.40887  -0.40490  -0.39103  -0.38223
 Alpha  occ. eigenvalues --   -0.37444  -0.35601  -0.35149  -0.34045  -0.33526
 Alpha  occ. eigenvalues --   -0.31510  -0.30809  -0.30388  -0.28788  -0.27590
 Alpha  occ. eigenvalues --   -0.25979  -0.25426  -0.22548
 Alpha virt. eigenvalues --    0.02287   0.03962   0.06486   0.06658   0.07937
 Alpha virt. eigenvalues --    0.09294   0.10634   0.12762   0.13276   0.14984
 Alpha virt. eigenvalues --    0.15148   0.17024   0.17515   0.19026   0.20303

 Mulliken charges:
               1
     1  C    0.310850
     2  O   -0.650889
     3  H    0.399764
     4  O   -0.549216
     5  H    0.460345
     6  O   -0.811009
     7  H    0.447139
     8  C    0.099579
     9  C    0.097952
    10  C   -0.079058
    11  O   -0.623358
    12  O   -0.681871
    13  H    0.135373
    14  H    0.425220
    15  H    0.131310
    16  H    0.168534
    17  H    0.159499
    18  H    0.161007
    19  H    0.408870
    20  O   -0.812251
    21  H    0.430880
    22  H    0.394945
    23  C    0.077361
    24  H    0.119295
    25  C    0.092743
    26  H    0.151632
    27  O   -0.616476
    28  H    0.396872
    29  O   -0.678660
    30  H    0.433619
 Sum of Mulliken charges =  -0.00000

 Dipole moment (field-independent basis, Debye):
    X=             -2.7691    Y=              2.4720    Z=              1.7054  Tot=              4.0850
 Quadrupole moment (field-independent basis, Debye-Ang):
   XX=            -85.1993   YY=            -77.4542   ZZ=            -82.7416
   XY=              6.2272   XZ=             -0.1771   YZ=             -9.1087

  Exact polarizability:   0.000   0.000   0.000   0.000   0.000   0.000
 Approx polarizability: 150.432   0.909 128.648   8.267   1.835 126.182

 Normal termination of Gaussian 09 at Sat Jan 14 01:23:04 2017.
