 Gaussian 09, Revision E.01,
 Gaussian 09:  ES64L-G09RevE.01 30-Nov-2015

 ----------------------------------------------------------------------
 # opt=(calcfc,ts,noeigentest,maxcycle=1000,cartesian) b3lyp 6-31g(d) f
 req
 ----------------------------------------------------------------------

 -------------------------
 boat6_Alpha_B3LYP_6-31G_d
 -------------------------
 Symbolic Z-matrix:
 Charge =  0 Multiplicity = 1

 SCF Done:  E(RB3LYP) =  -839.956763615     A.U. after   14 cycles
 SCF Done:  E(RB3LYP) =  -839.956829150     A.U. after   11 cycles
 SCF Done:  E(RB3LYP) =  -839.956801242     A.U. after   11 cycles
 SCF Done:  E(RB3LYP) =  -839.956785799     A.U. after   11 cycles
 SCF Done:  E(RB3LYP) =  -839.956734099     A.U. after   11 cycles
 SCF Done:  E(RB3LYP) =  -839.956769839     A.U. after   11 cycles
 SCF Done:  E(RB3LYP) =  -839.956846323     A.U. after   11 cycles
 SCF Done:  E(RB3LYP) =  -839.956869146     A.U. after   11 cycles
 SCF Done:  E(RB3LYP) =  -839.956865420     A.U. after   11 cycles
 SCF Done:  E(RB3LYP) =  -839.956863190     A.U. after   11 cycles
 SCF Done:  E(RB3LYP) =  -839.956688954     A.U. after   11 cycles
 SCF Done:  E(RB3LYP) =  -839.956834118     A.U. after   11 cycles
 SCF Done:  E(RB3LYP) =  -839.956868986     A.U. after   11 cycles
 SCF Done:  E(RB3LYP) =  -839.956882207     A.U. after   11 cycles
 SCF Done:  E(RB3LYP) =  -839.956863787     A.U. after   11 cycles
 SCF Done:  E(RB3LYP) =  -839.956884564     A.U. after   10 cycles
 SCF Done:  E(RB3LYP) =  -839.956884738     A.U. after    8 cycles
 SCF Done:  E(RB3LYP) =  -839.956885372     A.U. after    7 cycles
 SCF Done:  E(RB3LYP) =  -839.956885607     A.U. after    6 cycles
 Optimization completed.
    -- Stationary point found.
 Normal termination of Gaussian 09 at Thu Jan 12 06:37:24 2017.

 --------------------------------------------------------------------
 #N Geom=AllCheck Guess=TCheck SCRF=Check GenChk RB3LYP/6-31G(d) Freq
 --------------------------------------------------------------------

 Structure from the checkpoint file:  "/scratch/10453147.yak.local/Gau-11385.chk"
 -------------------------
 boat6_Alpha_B3LYP_6-31G_d
 -------------------------
 Charge =  0 Multiplicity = 1

                         Standard orientation:
 ---------------------------------------------------------------------
 Center     Atomic      Atomic             Coordinates (Angstroms)
 Number     Number       Type             X           Y           Z
 ---------------------------------------------------------------------
      1          6           0        0.884301    0.739319   -0.565516
      2          6           0       -1.417616   -0.396816   -0.565240
      3          6           0       -0.565220    0.805701   -0.066727
      4          6           0       -0.570271   -1.598288   -1.036737
      5          1           0       -1.210726   -2.492038   -1.006230
      6          1           0       -2.034463   -0.040612   -1.398493
      7          1           0        0.917537    0.735457   -1.656323
      8          1           0       -0.533259    0.728355    1.032158
      9          6           0        0.543249   -1.818633   -0.024506
     10          1           0        1.286924   -2.559199   -0.350013
     11          8           0        1.495679   -0.511666   -0.137014
     12          6           0        1.712187    1.904550   -0.045168
     13          1           0        1.233045    2.824485   -0.402215
     14          1           0        1.675868    1.920464    1.059259
     15          8           0        3.041789    1.760942   -0.519131
     16          1           0        3.527657    2.566067   -0.286050
     17          8           0        0.084699   -1.929760    1.217049
     18          8           0        0.003493   -1.418764   -2.322803
     19          1           0       -0.718511   -1.394947   -2.969716
     20          8           0       -2.317358   -0.841165    0.459698
     21          1           0       -1.718355   -1.295516    1.098813
     22          8           0       -1.110102    2.046552   -0.463828
     23          1           0       -1.961192    2.135763    0.027486
     24          8           0        2.032289   -0.887358    2.164796
     25          1           0        1.109631   -1.500166    1.980152
     26          1           0        1.797583   -0.172560    2.778663
     27          1           0        1.927312   -0.501458    0.980702
     28          8           0       -3.405946    1.636417    1.027691
     29          1           0       -4.232010    1.713032    0.526989
     30          1           0       -3.183161    0.676282    0.996509
 ---------------------------------------------------------------------

 SCF Done:  E(RB3LYP) =  -839.956885607     A.U. after    1 cycles

 The electronic state is 1-A.
 Alpha  occ. eigenvalues --  -19.18798 -19.17035 -19.16254 -19.15671 -19.15031
 Alpha  occ. eigenvalues --  -19.14805 -19.13121 -19.11284 -10.28912 -10.24661
 Alpha  occ. eigenvalues --  -10.24658 -10.24351 -10.24039 -10.24024  -1.07360
 Alpha  occ. eigenvalues --   -1.03982  -1.02973  -1.02594  -1.01198  -1.00897
 Alpha  occ. eigenvalues --   -1.00023  -0.98068  -0.78053  -0.76066  -0.69341
 Alpha  occ. eigenvalues --   -0.64355  -0.62419  -0.58030  -0.55888  -0.54185
 Alpha  occ. eigenvalues --   -0.53276  -0.52367  -0.51779  -0.51106  -0.49373
 Alpha  occ. eigenvalues --   -0.46948  -0.46609  -0.46367  -0.43547  -0.41869
 Alpha  occ. eigenvalues --   -0.41437  -0.40607  -0.40104  -0.39487  -0.38603
 Alpha  occ. eigenvalues --   -0.37169  -0.36403  -0.35018  -0.34637  -0.32732
 Alpha  occ. eigenvalues --   -0.30855  -0.30329  -0.29188  -0.28969  -0.27433
 Alpha  occ. eigenvalues --   -0.26635  -0.25242  -0.24844
 Alpha virt. eigenvalues --    0.04507   0.04765   0.06424   0.06806   0.08569
 Alpha virt. eigenvalues --    0.10262   0.12884   0.13171   0.13646   0.14804
 Alpha virt. eigenvalues --    0.15517   0.16725   0.17370   0.17940   0.18875

 Mulliken charges:
               1
     1  C    0.126558
     2  C    0.082306
     3  C    0.124374
     4  C    0.057439
     5  H    0.154426
     6  H    0.136276
     7  H    0.184330
     8  H    0.107547
     9  C    0.361337
    10  H    0.148463
    11  O   -0.620709
    12  C   -0.056946
    13  H    0.170862
    14  H    0.099247
    15  O   -0.611972
    16  H    0.397805
    17  O   -0.692485
    18  O   -0.616441
    19  H    0.400184
    20  O   -0.672212
    21  H    0.429164
    22  O   -0.682534
    23  H    0.428770
    24  O   -0.823752
    25  H    0.461101
    26  H    0.407120
    27  H    0.488184
    28  O   -0.815380
    29  H    0.394719
    30  H    0.432217
 Sum of Mulliken charges =  -0.00000

 Dipole moment (field-independent basis, Debye):
    X=             -1.5176    Y=              1.5482    Z=             -0.2879  Tot=              2.1870
 Quadrupole moment (field-independent basis, Debye-Ang):
   XX=            -79.7307   YY=            -84.0129   ZZ=            -79.3367
   XY=              9.3128   XZ=             10.0012   YZ=              5.4238

  Exact polarizability: 102.732   2.732  96.589   2.725   0.510  91.196
 Approx polarizability: 135.247   2.550 130.697  -1.206  -3.944 136.149

 ******    1 imaginary frequencies (negative Signs) ******

                      1                      2                      3
                      A                      A                      A
 Frequencies --  -1281.9744                45.0011                55.5744
 Red. masses --      1.1525                 5.6854                 5.9874
 Frc consts  --      1.1160                 0.0068                 0.0109
 IR Inten    --    271.0200                 1.3401                 1.2403

                      4                      5                      6
                      A                      A                      A
 Frequencies --     85.2641                89.7551               129.7710
 Red. masses --      5.3957                 5.5825                 4.6097
 Frc consts  --      0.0231                 0.0265                 0.0457
 IR Inten    --      0.3919                 6.5181                 7.8941

                      7                      8                      9
                      A                      A                      A
 Frequencies --    149.4341               177.5417               191.1664
 Red. masses --      3.8272                 5.6332                 4.5121
 Frc consts  --      0.0504                 0.1046                 0.0972
 IR Inten    --      5.5178                 5.7750                 8.8846

                     10                     11                     12
                      A                      A                      A
 Frequencies --    211.4192               241.8059               256.7972
 Red. masses --      4.5645                 3.9879                 1.6068
 Frc consts  --      0.1202                 0.1374                 0.0624
 IR Inten    --     13.1398                 7.2427                64.1926

                     13                     14                     15
                      A                      A                      A
 Frequencies --    263.7091               294.9945               299.5327
 Red. masses --      2.5056                 1.2780                 1.4042
 Frc consts  --      0.1027                 0.0655                 0.0742
 IR Inten    --     40.0755                95.6464                96.9967

                     16                     17                     18
                      A                      A                      A
 Frequencies --    312.7405               345.3737               355.9843
 Red. masses --      2.9682                 3.8064                 6.0421
 Frc consts  --      0.1710                 0.2675                 0.4511
 IR Inten    --     49.6346                 6.4189                15.4622

                     19                     20                     21
                      A                      A                      A
 Frequencies --    411.6505               416.4051               425.0848
 Red. masses --      3.7741                 1.1730                 5.2408
 Frc consts  --      0.3768                 0.1198                 0.5580
 IR Inten    --     12.2525                78.3535                45.7389

                     22                     23                     24
                      A                      A                      A
 Frequencies --    455.0552               483.6225               513.1082
 Red. masses --      4.2877                 4.2197                 3.1964
 Frc consts  --      0.5231                 0.5815                 0.4958
 IR Inten    --      1.8576                25.8979                12.3355

                     25                     26                     27
                      A                      A                      A
 Frequencies --    535.9145               570.0714               585.1301
 Red. masses --      2.2527                 2.0789                 4.1875
 Frc consts  --      0.3812                 0.3980                 0.8447
 IR Inten    --     96.8411                 4.1630                46.0697

                     28                     29                     30
                      A                      A                      A
 Frequencies --    604.5634               631.1700               661.2343
 Red. masses --      3.8855                 2.6568                 2.9048
 Frc consts  --      0.8367                 0.6236                 0.7483
 IR Inten    --     37.8002               201.7123                28.7842

                     31                     32                     33
                      A                      A                      A
 Frequencies --    714.7838               736.7752               774.3683
 Red. masses --      2.2287                 1.0629                 1.1121
 Frc consts  --      0.6709                 0.3399                 0.3929
 IR Inten    --     91.9331               126.9670                68.0543

                     34                     35                     36
                      A                      A                      A
 Frequencies --    824.6997               868.3483               886.0455
 Red. masses --      3.8804                 1.1180                 2.4981
 Frc consts  --      1.5550                 0.4967                 1.1555
 IR Inten    --     18.1348               223.3709               112.1782

                     37                     38                     39
                      A                      A                      A
 Frequencies --    932.9576              1004.8169              1038.7960
 Red. masses --      2.7555                 2.7967                 4.4734
 Frc consts  --      1.4131                 1.6637                 2.8441
 IR Inten    --     63.7870                 8.4449               126.0782

                     40                     41                     42
                      A                      A                      A
 Frequencies --   1051.0056              1087.5422              1101.6358
 Red. masses --      2.8752                 3.5812                 2.8446
 Frc consts  --      1.8712                 2.4956                 2.0340
 IR Inten    --    199.0370                25.7455                46.9706

                     43                     44                     45
                      A                      A                      A
 Frequencies --   1117.2020              1124.6322              1133.0927
 Red. masses --      4.5781                 2.4788                 4.0816
 Frc consts  --      3.3666                 1.8472                 3.0875
 IR Inten    --     66.7490                74.1116               102.5287

                     46                     47                     48
                      A                      A                      A
 Frequencies --   1144.2519              1173.6888              1213.2763
 Red. masses --      2.6751                 1.0897                 1.3108
 Frc consts  --      2.0636                 0.8844                 1.1369
 IR Inten    --     14.3146               876.0844               174.9449

                     49                     50                     51
                      A                      A                      A
 Frequencies --   1239.1558              1251.8704              1267.6545
 Red. masses --      1.1143                 1.1926                 1.6444
 Frc consts  --      1.0081                 1.1012                 1.5569
 IR Inten    --      6.1930                80.2225               148.7711

                     52                     53                     54
                      A                      A                      A
 Frequencies --   1277.7060              1289.1530              1318.3740
 Red. masses --      1.3677                 1.4229                 1.2549
 Frc consts  --      1.3156                 1.3932                 1.2851
 IR Inten    --     71.9540                76.9802                12.3807

                     55                     56                     57
                      A                      A                      A
 Frequencies --   1336.5917              1352.1990              1359.8795
 Red. masses --      1.1972                 1.2117                 1.1762
 Frc consts  --      1.2601                 1.3054                 1.2816
 IR Inten    --     16.9812                37.8061               375.1472

                     58                     59                     60
                      A                      A                      A
 Frequencies --   1386.9018              1400.8562              1412.8469
 Red. masses --      1.2863                 1.3639                 1.3433
 Frc consts  --      1.4578                 1.5770                 1.5799
 IR Inten    --    155.2080                28.3500               154.8961

                     61                     62                     63
                      A                      A                      A
 Frequencies --   1444.5724              1478.0003              1485.0203
 Red. masses --      1.3145                 1.5093                 1.3569
 Frc consts  --      1.6162                 1.9426                 1.7630
 IR Inten    --    428.6943                23.0048                88.3038

                     64                     65                     66
                      A                      A                      A
 Frequencies --   1500.3460              1527.0945              1545.0331
 Red. masses --      1.5171                 1.3281                 1.0978
 Frc consts  --      2.0121                 1.8248                 1.5441
 IR Inten    --     23.6713                38.8023                28.3785

                     67                     68                     69
                      A                      A                      A
 Frequencies --   1623.0332              1734.6192              1783.9841
 Red. masses --      1.0663                 1.0738                 1.1000
 Frc consts  --      1.6550                 1.9037                 2.0627
 IR Inten    --    901.3242                56.2142               707.2720

                     70                     71                     72
                      A                      A                      A
 Frequencies --   2001.6758              2962.5583              2989.3605
 Red. masses --      1.0320                 1.0719                 1.0823
 Frc consts  --      2.4362                 5.5430                 5.6985
 IR Inten    --    281.0331                61.3564                54.3776

                     73                     74                     75
                      A                      A                      A
 Frequencies --   3028.5028              3045.9785              3072.3082
 Red. masses --      1.0842                 1.0881                 1.0872
 Frc consts  --      5.8589                 5.9479                 6.0461
 IR Inten    --     32.9845                80.1858                30.0392

                     76                     77                     78
                      A                      A                      A
 Frequencies --   3077.2100              3139.0468              3425.6748
 Red. masses --      1.0894                 1.0863                 1.0647
 Frc consts  --      6.0780                 6.3066                 7.3616
 IR Inten    --     23.5507                12.3876               158.0420

                     79                     80                     81
                      A                      A                      A
 Frequencies --   3473.4680              3507.9294              3747.4633
 Red. masses --      1.0660                 1.0612                 1.0665
 Frc consts  --      7.5774                 7.6939                 8.8244
 IR Inten    --    546.3831               474.9995                19.2620

                     82                     83                     84
                      A                      A                      A
 Frequencies --   3758.3552              3771.9355              3798.1529
 Red. masses --      1.0666                 1.0652                 1.0689
 Frc consts  --      8.8762                 8.9293                 9.0849
 IR Inten    --     19.6209                34.7437                57.3550

 - Thermochemistry -
 -------------------
 Temperature   298.150 Kelvin.  Pressure   1.00000 Atm.
 Atom     1 has atomic number  6 and mass  12.00000

 Molecular mass:   216.08452 amu.
 Principal axes and moments of inertia in atomic units:
                           1         2         3
     Eigenvalues --  2578.729133415.907264093.56091
           X            0.99986   0.01009   0.01334
           Y           -0.01035   0.99977   0.01900
           Z           -0.01314  -0.01913   0.99973
 This molecule is an asymmetric top.
 Rotational symmetry number  1.
 Warning -- assumption of classical behavior for rotation
           may cause significant error
 Rotational temperatures (Kelvin)      0.03359     0.02536     0.02116
 Rotational constants (GHZ):           0.69986     0.52833     0.44087
    1 imaginary frequencies ignored.
 Zero-point vibrational energy     637258.5 (Joules/Mol)
                                  152.30844 (Kcal/Mol)
 Warning -- explicit consideration of  27 degrees of freedom as
           vibrations may cause significant error
 Vibrational temperatures:     64.75    79.96   122.68   129.14   186.71
          (Kelvin)            215.00   255.44   275.05   304.18   347.90
                              369.47   379.42   424.43   430.96   449.96
                              496.92   512.18   592.27   599.11   611.60
                              654.72   695.82   738.25   771.06   820.20
                              841.87   869.83   908.11   951.37  1028.41
                             1060.05  1114.14  1186.56  1249.36  1274.82
                             1342.32  1445.71  1494.59  1512.16  1564.73
                             1585.01  1607.40  1618.09  1630.27  1646.32
                             1688.67  1745.63  1782.87  1801.16  1823.87
                             1838.33  1854.80  1896.84  1923.05  1945.51
                             1956.56  1995.44  2015.52  2032.77  2078.41
                             2126.51  2136.61  2158.66  2197.15  2222.96
                             2335.18  2495.73  2566.75  2879.96  4262.46
                             4301.02  4357.33  4382.48  4420.36  4427.41
                             4516.38  4928.78  4997.54  5047.12  5391.76
                             5407.43  5426.97  5464.69

 Zero-point correction=                           0.242719 (Hartree/Particle)
 Thermal correction to Energy=                    0.258717
 Thermal correction to Enthalpy=                  0.259661
 Thermal correction to Gibbs Free Energy=         0.200294
 Sum of electronic and zero-point Energies=           -839.714167
 Sum of electronic and thermal Energies=              -839.698169
 Sum of electronic and thermal Enthalpies=            -839.697224
 Sum of electronic and thermal Free Energies=         -839.756591

                     E (Thermal)             CV                S
                      KCal/Mol        Cal/Mol-Kelvin    Cal/Mol-Kelvin
 Total                  162.347             60.677            124.948
 Electronic               0.000              0.000              0.000
 Translational            0.889              2.981             42.015
 Rotational               0.889              2.981             31.956
 Vibrational            160.570             54.715             50.978
 Vibration     1          0.595              1.979              5.026
 Vibration     2          0.596              1.975              4.608
 Vibration     3          0.601              1.959              3.766
 Vibration     4          0.602              1.956              3.665
 Vibration     5          0.612              1.924              2.949
 Vibration     6          0.618              1.903              2.679
 Vibration     7          0.628              1.870              2.354
 Vibration     8          0.634              1.852              2.216
 Vibration     9          0.643              1.823              2.031
 Vibration    10          0.658              1.776              1.790
 Vibration    11          0.666              1.751              1.683
 Vibration    12          0.670              1.739              1.637
 Vibration    13          0.689              1.683              1.445
 Vibration    14          0.692              1.675              1.420
 Vibration    15          0.701              1.649              1.348
 Vibration    16          0.724              1.585              1.187
 Vibration    17          0.731              1.563              1.140
 Vibration    18          0.776              1.445              0.921
 Vibration    19          0.780              1.435              0.904
 Vibration    20          0.787              1.416              0.875
 Vibration    21          0.813              1.350              0.781
 Vibration    22          0.840              1.286              0.700
 Vibration    23          0.868              1.221              0.626
 Vibration    24          0.891              1.171              0.574
 Vibration    25          0.926              1.096              0.504
 Vibration    26          0.942              1.064              0.476
 Vibration    27          0.963              1.022              0.442

 Optimization completed.
    -- Stationary point found.
 Normal termination of Gaussian 09 at Thu Jan 12 06:54:55 2017.
