 Gaussian 09, Revision E.01,
 Gaussian 09:  ES64L-G09RevE.01 30-Nov-2015

 ----------------------------------------------------------------------
 # opt=(calcfc,ts,noeigentest,maxcycle=1000,cartesian) freq b3lyp/6-31g
 (d)
 ----------------------------------------------------------------------

 -------------------------
 boat6_Alpha_B3LYP_6-31G_d
 -------------------------
 Symbolic Z-matrix:
 Charge =  0 Multiplicity = 1

 SCF Done:  E(RB3LYP) =  -839.961295993     A.U. after   14 cycles
 SCF Done:  E(RB3LYP) =  -839.961439785     A.U. after   11 cycles
 SCF Done:  E(RB3LYP) =  -839.961445631     A.U. after    9 cycles
 SCF Done:  E(RB3LYP) =  -839.961446015     A.U. after    8 cycles
 SCF Done:  E(RB3LYP) =  -839.961446203     A.U. after    8 cycles
 SCF Done:  E(RB3LYP) =  -839.961446218     A.U. after    7 cycles
 SCF Done:  E(RB3LYP) =  -839.961446244     A.U. after    7 cycles
 Optimization completed.
    -- Stationary point found.
 Normal termination of Gaussian 09 at Thu Jan 12 13:00:17 2017.

 --------------------------------------------------------------------
 #N Geom=AllCheck Guess=TCheck SCRF=Check GenChk RB3LYP/6-31G(d) Freq
 --------------------------------------------------------------------

 Structure from the checkpoint file:  "/scratch/10454750.yak.local/Gau-28457.chk"
 -------------------------
 boat6_Alpha_B3LYP_6-31G_d
 -------------------------
 Charge =  0 Multiplicity = 1

                         Standard orientation:
 ---------------------------------------------------------------------
 Center     Atomic      Atomic             Coordinates (Angstroms)
 Number     Number       Type             X           Y           Z
 ---------------------------------------------------------------------
      1          6           0       -0.458760    0.850414    0.141956
      2          6           0        1.484663   -0.770786    0.079855
      3          6           0        1.051103    0.724842   -0.039900
      4          6           0        0.354813   -1.787945    0.350292
      5          1           0        0.752081   -2.783088    0.087210
      6          1           0        2.151806   -0.842265    0.941790
      7          1           0       -0.753150    0.467345    1.124631
      8          1           0        1.259751    1.034446   -1.079867
      9          6           0       -0.958587   -1.604960   -0.456840
     10          8           0       -1.002399    0.005625   -0.898483
     11          6           0       -0.979519    2.266975    0.002544
     12          1           0       -0.400392    2.909912    0.674678
     13          1           0       -0.846374    2.617083   -1.031446
     14          8           0       -2.371457    2.263404    0.365968
     15          1           0       -2.708823    3.167078    0.277472
     16          8           0        0.040396   -1.719071    1.724482
     17          1           0       -0.927572   -1.903745    1.735758
     18          8           0        2.294955   -1.164384   -1.047038
     19          1           0        1.779845   -1.004500   -1.854840
     20          8           0        1.722082    1.566848    0.868105
     21          1           0        2.668653    1.531361    0.602549
     22          8           0       -3.389433   -0.102901   -0.725213
     23          1           0       -3.080819   -0.996870   -0.217885
     24          1           0       -2.262750    0.113249   -0.971708
     25          1           0       -3.539802    0.598465   -0.058170
     26          8           0        4.145743    0.852175   -0.357696
     27          1           0        4.814687    0.461586    0.224457
     28          1           0        3.699140    0.082779   -0.774216
     29          8           0       -2.024005   -1.893057    0.237202
     30          1           0       -0.895612   -1.993192   -1.486479
 ---------------------------------------------------------------------

 SCF Done:  E(RB3LYP) =  -839.961446244     A.U. after    1 cycles

 The electronic state is 1-A.
 Alpha  occ. eigenvalues --  -19.18917 -19.17779 -19.17718 -19.17540 -19.15347
 Alpha  occ. eigenvalues --  -19.13196 -19.12781 -19.10607 -10.28315 -10.24905
 Alpha  occ. eigenvalues --  -10.24541 -10.24265 -10.24174 -10.23324  -1.07606
 Alpha  occ. eigenvalues --   -1.04630  -1.04280  -1.02909  -1.01559  -1.00904
 Alpha  occ. eigenvalues --   -1.00407  -0.97211  -0.77844  -0.75439  -0.69000
 Alpha  occ. eigenvalues --   -0.64867  -0.60997  -0.57461  -0.56357  -0.54182
 Alpha  occ. eigenvalues --   -0.53639  -0.53546  -0.52331  -0.50442  -0.49434
 Alpha  occ. eigenvalues --   -0.47412  -0.47178  -0.45100  -0.44320  -0.42787
 Alpha  occ. eigenvalues --   -0.41947  -0.41264  -0.39851  -0.39507  -0.39199
 Alpha  occ. eigenvalues --   -0.37684  -0.36037  -0.34849  -0.34138  -0.33174
 Alpha  occ. eigenvalues --   -0.31283  -0.30283  -0.30066  -0.29094  -0.27942
 Alpha  occ. eigenvalues --   -0.26017  -0.24925  -0.24258
 Alpha virt. eigenvalues --    0.04175   0.04590   0.06556   0.07432   0.09475
 Alpha virt. eigenvalues --    0.09910   0.12325   0.13373   0.13807   0.14382
 Alpha virt. eigenvalues --    0.15554   0.16121   0.17040   0.18439   0.18965

 Mulliken charges:
               1
     1  C    0.091095
     2  C    0.079682
     3  C    0.141279
     4  C    0.085279
     5  H    0.137771
     6  H    0.171740
     7  H    0.175788
     8  H    0.107657
     9  C    0.328109
    10  O   -0.646306
    11  C   -0.061072
    12  H    0.177922
    13  H    0.137099
    14  O   -0.649717
    15  H    0.409437
    16  O   -0.652292
    17  H    0.415140
    18  O   -0.646011
    19  H    0.404325
    20  O   -0.671749
    21  H    0.429009
    22  O   -0.806130
    23  H    0.459689
    24  H    0.480667
    25  H    0.437606
    26  O   -0.811767
    27  H    0.398592
    28  H    0.429383
    29  O   -0.665739
    30  H    0.113512
 Sum of Mulliken charges =   0.00000

 Dipole moment (field-independent basis, Debye):
    X=             -0.1705    Y=              2.6435    Z=             -1.8654  Tot=              3.2399
 Quadrupole moment (field-independent basis, Debye-Ang):
   XX=            -77.2468   YY=            -81.1565   ZZ=            -86.4638
   XY=            -14.1439   XZ=             -1.3126   YZ=              2.6113

  Exact polarizability: 112.482  -1.837  99.172   0.158   1.741  80.083
 Approx polarizability: 144.278   1.251 132.881  -2.210   1.307 128.418

 ******    1 imaginary frequencies (negative Signs) ******

                      1                      2                      3
                      A                      A                      A
 Frequencies --   -975.9080                42.4700                57.2200
 Red. masses --      1.3120                 5.7795                 5.9075
 Frc consts  --      0.7362                 0.0061                 0.0114
 IR Inten    --    358.9541                 2.1292                 2.0254

                      4                      5                      6
                      A                      A                      A
 Frequencies --     81.6806                91.7904               109.8813
 Red. masses --      5.1677                 5.3059                 5.6794
 Frc consts  --      0.0203                 0.0263                 0.0404
 IR Inten    --      0.5205                 7.3001                 3.5455

                      7                      8                      9
                      A                      A                      A
 Frequencies --    165.3017               178.1924               188.2093
 Red. masses --      5.1052                 4.9687                 4.4476
 Frc consts  --      0.0822                 0.0930                 0.0928
 IR Inten    --      8.0102                 3.5466                11.2215

                     10                     11                     12
                      A                      A                      A
 Frequencies --    211.4491               239.5465               261.3158
 Red. masses --      5.1371                 2.3957                 2.3380
 Frc consts  --      0.1353                 0.0810                 0.0941
 IR Inten    --      2.6205                34.1002                40.4843

                     13                     14                     15
                      A                      A                      A
 Frequencies --    273.3400               285.0384               306.8008
 Red. masses --      2.1413                 1.1834                 4.2098
 Frc consts  --      0.0943                 0.0566                 0.2335
 IR Inten    --     50.9699               139.7501                21.5154

                     16                     17                     18
                      A                      A                      A
 Frequencies --    316.8345               348.6205               367.9415
 Red. masses --      2.7200                 1.8896                 3.6670
 Frc consts  --      0.1609                 0.1353                 0.2925
 IR Inten    --      4.4504                65.8093                43.5055

                     19                     20                     21
                      A                      A                      A
 Frequencies --    371.3075               424.9928               441.0127
 Red. masses --      3.8313                 3.9052                 5.6864
 Frc consts  --      0.3112                 0.4156                 0.6516
 IR Inten    --     29.7489                51.5577                 7.1556

                     22                     23                     24
                      A                      A                      A
 Frequencies --    454.5621               493.7305               517.9073
 Red. masses --      2.1850                 1.7485                 3.3595
 Frc consts  --      0.2660                 0.2511                 0.5309
 IR Inten    --     10.2130                41.0970                89.9178

                     25                     26                     27
                      A                      A                      A
 Frequencies --    557.8059               584.2626               639.0111
 Red. masses --      4.6276                 3.1122                 1.3643
 Frc consts  --      0.8483                 0.6259                 0.3282
 IR Inten    --     28.0761                61.8232                15.3717

                     28                     29                     30
                      A                      A                      A
 Frequencies --    646.6853               669.2396               677.1442
 Red. masses --      2.4975                 2.0177                 1.9761
 Frc consts  --      0.6154                 0.5324                 0.5338
 IR Inten    --    241.3484                45.5606                97.2420

                     31                     32                     33
                      A                      A                      A
 Frequencies --    701.7854               720.2561               725.7191
 Red. masses --      2.2336                 1.2886                 1.1945
 Frc consts  --      0.6481                 0.3939                 0.3706
 IR Inten    --     36.5610               168.3031               119.8329

                     34                     35                     36
                      A                      A                      A
 Frequencies --    795.5314               838.6633               857.1839
 Red. masses --      1.0904                 4.1903                 3.6008
 Frc consts  --      0.4066                 1.7365                 1.5588
 IR Inten    --    272.0724                15.4457                49.0366

                     37                     38                     39
                      A                      A                      A
 Frequencies --    898.4519               960.4174              1028.4663
 Red. masses --      2.6193                 3.1009                 4.2326
 Frc consts  --      1.2457                 1.6852                 2.6378
 IR Inten    --     77.1743                75.3921                48.3984

                     40                     41                     42
                      A                      A                      A
 Frequencies --   1042.2415              1071.3391              1101.5462
 Red. masses --      4.8393                 2.8710                 2.6969
 Frc consts  --      3.0972                 1.9415                 1.9281
 IR Inten    --     52.4173               227.0964                30.0755

                     43                     44                     45
                      A                      A                      A
 Frequencies --   1110.4973              1131.6763              1147.4574
 Red. masses --      2.6751                 5.4798                 2.2027
 Frc consts  --      1.9437                 4.1349                 1.7088
 IR Inten    --     21.0845               112.0234                85.1899

                     46                     47                     48
                      A                      A                      A
 Frequencies --   1149.0955              1205.4636              1225.0172
 Red. masses --      3.5072                 1.1139                 1.1779
 Frc consts  --      2.7285                 0.9537                 1.0414
 IR Inten    --     16.8735               632.0548               215.5566

                     49                     50                     51
                      A                      A                      A
 Frequencies --   1243.3977              1260.1050              1266.5902
 Red. masses --      1.2276                 1.1239                 1.3150
 Frc consts  --      1.1182                 1.0515                 1.2429
 IR Inten    --     16.6541                25.9971               160.8931

                     52                     53                     54
                      A                      A                      A
 Frequencies --   1301.4968              1316.6578              1333.4645
 Red. masses --      1.3782                 1.6082                 1.2653
 Frc consts  --      1.3755                 1.6426                 1.3256
 IR Inten    --    125.7489               432.0949                36.8581

                     55                     56                     57
                      A                      A                      A
 Frequencies --   1342.5369              1367.8170              1383.5748
 Red. masses --      1.1539                 1.3738                 1.2164
 Frc consts  --      1.2254                 1.5143                 1.3719
 IR Inten    --     16.3979                28.0692                49.3516

                     58                     59                     60
                      A                      A                      A
 Frequencies --   1409.2555              1415.6647              1429.2251
 Red. masses --      1.2761                 1.3459                 1.2638
 Frc consts  --      1.4932                 1.5892                 1.5210
 IR Inten    --     11.7842                43.2498               199.6582

                     61                     62                     63
                      A                      A                      A
 Frequencies --   1443.4412              1472.6304              1480.8844
 Red. masses --      1.5274                 1.5457                 1.4088
 Frc consts  --      1.8750                 1.9750                 1.8203
 IR Inten    --    339.1553                 1.3011               119.3722

                     64                     65                     66
                      A                      A                      A
 Frequencies --   1516.8486              1539.1495              1619.3480
 Red. masses --      1.4294                 1.0890                 1.1137
 Frc consts  --      1.9377                 1.5200                 1.7207
 IR Inten    --     34.0135                12.8897               215.4669

                     67                     68                     69
                      A                      A                      A
 Frequencies --   1641.1705              1731.3120              1841.5278
 Red. masses --      1.1302                 1.0756                 1.0845
 Frc consts  --      1.7936                 1.8996                 2.1668
 IR Inten    --    161.4654                57.0048               328.1641

                     70                     71                     72
                      A                      A                      A
 Frequencies --   2328.4517              2955.1904              2978.6043
 Red. masses --      1.0519                 1.0829                 1.0839
 Frc consts  --      3.3601                 5.5721                 5.6660
 IR Inten    --   1245.0879                44.3400                24.6956

                     73                     74                     75
                      A                      A                      A
 Frequencies --   2999.8618              3027.8840              3093.9592
 Red. masses --      1.0873                 1.0644                 1.0870
 Frc consts  --      5.7650                 5.7496                 6.1304
 IR Inten    --    123.8174                38.6913                 4.9790

                     76                     77                     78
                      A                      A                      A
 Frequencies --   3105.6013              3118.6123              3488.4250
 Red. masses --      1.0975                 1.0868                 1.0637
 Frc consts  --      6.2363                 6.2278                 7.6263
 IR Inten    --     22.5455                10.4821               128.2983

                     79                     80                     81
                      A                      A                      A
 Frequencies --   3500.3464              3558.0289              3655.7200
 Red. masses --      1.0641                 1.0597                 1.0633
 Frc consts  --      7.6814                 7.9043                 8.3722
 IR Inten    --    175.2687               523.1802               134.5313

                     82                     83                     84
                      A                      A                      A
 Frequencies --   3729.4243              3768.1283              3801.8582
 Red. masses --      1.0661                 1.0666                 1.0705
 Frc consts  --      8.7366                 8.9225                 9.1165
 IR Inten    --     18.3560                32.5720                66.9390

 - Thermochemistry -
 -------------------
 Temperature   298.150 Kelvin.  Pressure   1.00000 Atm.
 Atom     1 has atomic number  6 and mass  12.00000

 Molecular mass:   216.08452 amu.
 Principal axes and moments of inertia in atomic units:
                           1         2         3
     Eigenvalues --  2084.707253728.457374930.55499
           X            0.99992  -0.01250  -0.00122
           Y            0.01250   0.99992   0.00309
           Z            0.00118  -0.00310   0.99999
 This molecule is an asymmetric top.
 Rotational symmetry number  1.
 Warning -- assumption of classical behavior for rotation
           may cause significant error
 Rotational temperatures (Kelvin)      0.04155     0.02323     0.01757
 Rotational constants (GHZ):           0.86570     0.48405     0.36603
    1 imaginary frequencies ignored.
 Zero-point vibrational energy     641080.5 (Joules/Mol)
                                  153.22193 (Kcal/Mol)
 Warning -- explicit consideration of  25 degrees of freedom as
           vibrations may cause significant error
 Vibrational temperatures:     61.10    82.33   117.52   132.07   158.09
          (Kelvin)            237.83   256.38   270.79   304.23   344.65
                              375.97   393.27   410.11   441.42   455.85
                              501.59   529.39   534.23   611.47   634.52
                              654.01   710.37   745.15   802.56   840.62
                              919.39   930.43   962.89   974.26  1009.71
                             1036.29  1044.15  1144.59  1206.65  1233.29
                             1292.67  1381.82  1479.73  1499.55  1541.42
                             1584.88  1597.76  1628.23  1650.93  1653.29
                             1734.39  1762.52  1788.97  1813.01  1822.34
                             1872.56  1894.37  1918.56  1931.61  1967.98
                             1990.65  2027.60  2036.82  2056.33  2076.79
                             2118.78  2130.66  2182.40  2214.49  2329.88
                             2361.28  2490.97  2649.54  3350.12  4251.85
                             4285.54  4316.13  4356.44  4451.51  4468.26
                             4486.98  5019.06  5036.21  5119.20  5259.76
                             5365.80  5421.49  5470.02

 Zero-point correction=                           0.244175 (Hartree/Particle)
 Thermal correction to Energy=                    0.260120
 Thermal correction to Enthalpy=                  0.261065
 Thermal correction to Gibbs Free Energy=         0.201673
 Sum of electronic and zero-point Energies=           -839.717272
 Sum of electronic and thermal Energies=              -839.701326
 Sum of electronic and thermal Enthalpies=            -839.700382
 Sum of electronic and thermal Free Energies=         -839.759774

                     E (Thermal)             CV                S
                      KCal/Mol        Cal/Mol-Kelvin    Cal/Mol-Kelvin
 Total                  163.228             60.488            125.001
 Electronic               0.000              0.000              0.000
 Translational            0.889              2.981             42.015
 Rotational               0.889              2.981             32.016
 Vibrational            161.451             54.526             50.970
 Vibration     1          0.595              1.980              5.140
 Vibration     2          0.596              1.975              4.551
 Vibration     3          0.600              1.962              3.850
 Vibration     4          0.602              1.955              3.622
 Vibration     5          0.606              1.941              3.271
 Vibration     6          0.624              1.885              2.488
 Vibration     7          0.629              1.869              2.347
 Vibration     8          0.633              1.856              2.245
 Vibration     9          0.643              1.823              2.031
 Vibration    10          0.657              1.780              1.806
 Vibration    11          0.669              1.744              1.653
 Vibration    12          0.676              1.723              1.575
 Vibration    13          0.683              1.701              1.503
 Vibration    14          0.697              1.661              1.380
 Vibration    15          0.704              1.641              1.326
 Vibration    16          0.726              1.578              1.172
 Vibration    17          0.741              1.538              1.088
 Vibration    18          0.743              1.531              1.074
 Vibration    19          0.787              1.416              0.875
 Vibration    20          0.801              1.381              0.823
 Vibration    21          0.813              1.351              0.782
 Vibration    22          0.849              1.264              0.674
 Vibration    23          0.873              1.210              0.615
 Vibration    24          0.913              1.123              0.528
 Vibration    25          0.941              1.065              0.478

 Optimization completed.
    -- Stationary point found.
 Normal termination of Gaussian 09 at Thu Jan 12 13:19:46 2017.
