 Gaussian 09, Revision E.01,
 Gaussian 09:  ES64L-G09RevE.01 30-Nov-2015

 ----------------------------------------------------------------------
 # opt=(calcfc,ts,noeigentest,maxcycle=1000,cartesian) b3lyp 6-31g(d) f
 req
 ----------------------------------------------------------------------

 -------------------------------------------
 ./6/glo_1w_alpha_boat6_B3LYP_631Gd_iopt.out
 -------------------------------------------
 Symbolic Z-matrix:
 Charge =  0 Multiplicity = 1

 SCF Done:  E(RB3LYP) =  -839.983983016     A.U. after   14 cycles
 Optimization completed.
    -- Stationary point found.
 Normal termination of Gaussian 09 at Tue Jan 31 07:18:28 2017.

 --------------------------------------------------------------------
 #N Geom=AllCheck Guess=TCheck SCRF=Check GenChk RB3LYP/6-31G(d) Freq
 --------------------------------------------------------------------

 Structure from the checkpoint file:  "/scratch/10501397.yak.local/Gau-3675.chk"
 -------------------------------------------
 ./6/glo_1w_alpha_boat6_B3LYP_631Gd_iopt.out
 -------------------------------------------
 Charge =  0 Multiplicity = 1

                         Standard orientation:
 ---------------------------------------------------------------------
 Center     Atomic      Atomic             Coordinates (Angstroms)
 Number     Number       Type             X           Y           Z
 ---------------------------------------------------------------------
      1          6           0       -0.661929   -0.470120   -0.685749
      2          6           0        1.485750    0.660641    0.062991
      3          6           0        0.785491   -0.695860   -0.238069
      4          6           0        0.544900    1.881640    0.029731
      5          1           0        1.002970    2.688521    0.621561
      6          1           0        2.219730    0.835561   -0.726499
      7          1           0       -0.700979    0.117270   -1.607059
      8          1           0        0.720221   -1.245820    0.719911
      9          6           0       -0.849960    1.580690    0.622611
     10          8           0       -1.301729    0.262749    0.388651
     11          6           0       -1.419918   -1.769991   -0.874139
     12          1           0       -0.882318   -2.353270   -1.631869
     13          1           0       -1.418348   -2.330241    0.071911
     14          8           0       -2.751169   -1.453751   -1.280059
     15          1           0       -3.166728   -2.277181   -1.575949
     16          8           0        0.432540    2.256140   -1.332339
     17          1           0       -0.420861    2.722360   -1.405919
     18          8           0        2.251430    0.603891    1.282521
     19          1           0        1.679161    0.256601    1.986951
     20          8           0        1.464801   -1.457709   -1.206809
     21          1           0        2.349682   -1.662619   -0.825729
     22          8           0       -2.212718   -1.606671    2.389461
     23          1           0       -2.630550    2.145429    0.119161
     24          1           0       -1.972949   -0.893051    1.769831
     25          1           0       -3.083908   -1.887711    2.072341
     26          8           0        3.825511   -1.505138    0.283601
     27          1           0        4.589471   -1.148128   -0.193869
     28          1           0        3.485341   -0.751178    0.812851
     29          8           0       -1.737870    2.521349    0.046611
     30          1           0       -0.842310    1.694570    1.715041
 ---------------------------------------------------------------------

 SCF Done:  E(RB3LYP) =  -839.983983016     A.U. after    1 cycles

 The electronic state is 1-A.
 Alpha  occ. eigenvalues --  -19.18258 -19.18136 -19.17668 -19.15542 -19.15024
 Alpha  occ. eigenvalues --  -19.14814 -19.13200 -19.11926 -10.30576 -10.25061
 Alpha  occ. eigenvalues --  -10.25041 -10.24417 -10.24388 -10.23067  -1.09303
 Alpha  occ. eigenvalues --   -1.05181  -1.03334  -1.02081  -1.01590  -1.01387
 Alpha  occ. eigenvalues --   -1.00544  -0.97872  -0.78586  -0.77535  -0.69858
 Alpha  occ. eigenvalues --   -0.65913  -0.62813  -0.58309  -0.56177  -0.53825
 Alpha  occ. eigenvalues --   -0.53669  -0.52750  -0.51916  -0.50604  -0.49707
 Alpha  occ. eigenvalues --   -0.48316  -0.46458  -0.45181  -0.43535  -0.43003
 Alpha  occ. eigenvalues --   -0.42239  -0.41002  -0.40007  -0.39152  -0.38194
 Alpha  occ. eigenvalues --   -0.36336  -0.35592  -0.34903  -0.34212  -0.32512
 Alpha  occ. eigenvalues --   -0.31697  -0.30675  -0.30135  -0.28991  -0.28091
 Alpha  occ. eigenvalues --   -0.27860  -0.26586  -0.25449
 Alpha virt. eigenvalues --    0.03755   0.05540   0.06665   0.07239   0.08828
 Alpha virt. eigenvalues --    0.10248   0.10642   0.12637   0.13467   0.13663
 Alpha virt. eigenvalues --    0.14683   0.16128   0.17285   0.18140   0.18242

 Mulliken charges:
               1
     1  C    0.104343
     2  C    0.083248
     3  C    0.117735
     4  C    0.077373
     5  H    0.144478
     6  H    0.177425
     7  H    0.174715
     8  H    0.116733
     9  C    0.338423
    10  O   -0.532090
    11  C   -0.073297
    12  H    0.162029
    13  H    0.141975
    14  O   -0.631448
    15  H    0.396254
    16  O   -0.641784
    17  H    0.421204
    18  O   -0.645740
    19  H    0.406659
    20  O   -0.672098
    21  H    0.430576
    22  O   -0.822076
    23  H    0.412257
    24  H    0.416465
    25  H    0.381125
    26  O   -0.808590
    27  H    0.399104
    28  H    0.427370
    29  O   -0.636854
    30  H    0.134490
 Sum of Mulliken charges =  -0.00000

 Dipole moment (field-independent basis, Debye):
    X=             -0.8149    Y=              0.7746    Z=             -0.0136  Tot=              1.1244
 Quadrupole moment (field-independent basis, Debye-Ang):
   XX=            -68.7425   YY=            -85.5995   ZZ=            -90.3392
   XY=              4.4225   XZ=              3.4317   YZ=              7.7321

  Exact polarizability: 103.758   0.564  93.730   1.227   2.731  84.911
 Approx polarizability: 131.022  -0.857 123.264  -0.003   0.784 127.102

 ******    1 imaginary frequencies (negative Signs) ******

                      1                      2                      3
                      A                      A                      A
 Frequencies --    -48.8068                35.5707                48.1476
 Red. masses --      6.1820                 6.3496                 5.7121
 Frc consts  --      0.0087                 0.0047                 0.0078
 IR Inten    --      9.8263                 0.6034                 1.5303

                      4                      5                      6
                      A                      A                      A
 Frequencies --     59.5587                83.0779                96.4869
 Red. masses --      6.3161                 5.8971                 5.6758
 Frc consts  --      0.0132                 0.0240                 0.0311
 IR Inten    --      3.2627                 0.8354                 2.6500

                      7                      8                      9
                      A                      A                      A
 Frequencies --    119.1160               158.2233               179.2163
 Red. masses --      4.8657                 5.1915                 5.5670
 Frc consts  --      0.0407                 0.0766                 0.1053
 IR Inten    --      8.4804                 5.7971                 4.7049

                     10                     11                     12
                      A                      A                      A
 Frequencies --    190.4827               203.7065               225.4885
 Red. masses --      3.2936                 1.4063                 3.4237
 Frc consts  --      0.0704                 0.0344                 0.1026
 IR Inten    --     56.4809               105.2627                 8.3246

                     13                     14                     15
                      A                      A                      A
 Frequencies --    241.7697               252.1955               262.5551
 Red. masses --      1.9501                 1.2792                 1.4790
 Frc consts  --      0.0672                 0.0479                 0.0601
 IR Inten    --     68.7145               111.0295                81.7288

                     16                     17                     18
                      A                      A                      A
 Frequencies --    272.1645               286.0749               304.4091
 Red. masses --      1.1283                 1.1980                 2.2394
 Frc consts  --      0.0492                 0.0578                 0.1223
 IR Inten    --     29.7361               124.3065                 5.6119

                     19                     20                     21
                      A                      A                      A
 Frequencies --    318.4565               342.5817               353.1878
 Red. masses --      3.2838                 3.2305                 1.7838
 Frc consts  --      0.1962                 0.2234                 0.1311
 IR Inten    --     53.7030                26.0175               122.1420

                     22                     23                     24
                      A                      A                      A
 Frequencies --    384.3589               407.2906               436.7031
 Red. masses --      4.0334                 6.1959                 3.1717
 Frc consts  --      0.3511                 0.6056                 0.3564
 IR Inten    --      4.4069                 2.2678                31.1988

                     25                     26                     27
                      A                      A                      A
 Frequencies --    473.8033               499.3495               513.7131
 Red. masses --      1.7028                 2.0979                 3.9626
 Frc consts  --      0.2252                 0.3082                 0.6161
 IR Inten    --     13.2913                15.8912                 7.1874

                     28                     29                     30
                      A                      A                      A
 Frequencies --    528.4981               572.4952               599.3078
 Red. masses --      1.3250                 3.5119                 3.1904
 Frc consts  --      0.2180                 0.6782                 0.6751
 IR Inten    --     99.2045                45.8921                17.6330

                     31                     32                     33
                      A                      A                      A
 Frequencies --    632.1739               660.2729               719.9056
 Red. masses --      1.0735                 3.7470                 1.1043
 Frc consts  --      0.2528                 0.9624                 0.3372
 IR Inten    --    136.2702                42.8534                98.2381

                     34                     35                     36
                      A                      A                      A
 Frequencies --    795.7075               812.9167               841.5229
 Red. masses --      1.0925                 2.9947                 5.6358
 Frc consts  --      0.4075                 1.1660                 2.3515
 IR Inten    --    215.7934                17.7484                11.3860

                     37                     38                     39
                      A                      A                      A
 Frequencies --    886.8227               955.2837              1021.8904
 Red. masses --      2.4230                 3.0451                 4.3322
 Frc consts  --      1.1227                 1.6373                 2.6654
 IR Inten    --     49.1970               109.4862                50.2023

                     40                     41                     42
                      A                      A                      A
 Frequencies --   1047.9741              1067.7048              1082.6321
 Red. masses --      4.1083                 3.0822                 4.3812
 Frc consts  --      2.6583                 2.0702                 3.0256
 IR Inten    --    143.5518                70.6839                70.8969

                     43                     44                     45
                      A                      A                      A
 Frequencies --   1092.5835              1104.9509              1111.1953
 Red. masses --      3.6872                 3.4069                 3.4660
 Frc consts  --      2.5933                 2.4507                 2.5215
 IR Inten    --    104.9334                35.9482                15.5143

                     46                     47                     48
                      A                      A                      A
 Frequencies --   1132.8630              1142.9293              1157.4489
 Red. masses --      3.7610                 3.6429                 2.2105
 Frc consts  --      2.8439                 2.8037                 1.7448
 IR Inten    --     71.9568                90.1523                20.7889

                     49                     50                     51
                      A                      A                      A
 Frequencies --   1222.3950              1245.0634              1254.4375
 Red. masses --      1.1828                 1.1838                 1.1854
 Frc consts  --      1.0413                 1.0812                 1.0990
 IR Inten    --     11.1497                11.8130                85.1142

                     52                     53                     54
                      A                      A                      A
 Frequencies --   1270.6550              1293.3657              1320.7299
 Red. masses --      1.2536                 1.2936                 1.1956
 Frc consts  --      1.1925                 1.2749                 1.2287
 IR Inten    --     55.8462                21.1016                16.8939

                     55                     56                     57
                      A                      A                      A
 Frequencies --   1329.9279              1373.7139              1383.5378
 Red. masses --      1.2214                 1.2383                 1.2411
 Frc consts  --      1.2728                 1.3768                 1.3998
 IR Inten    --     10.6203                44.9398                12.0413

                     58                     59                     60
                      A                      A                      A
 Frequencies --   1399.4062              1409.5464              1413.5980
 Red. masses --      1.2606                 1.2259                 1.2728
 Frc consts  --      1.4545                 1.4351                 1.4985
 IR Inten    --      6.6963                33.6822                15.5098

                     61                     62                     63
                      A                      A                      A
 Frequencies --   1432.3816              1450.0013              1458.7286
 Red. masses --      1.2089                 1.4319                 1.6214
 Frc consts  --      1.4614                 1.7738                 2.0328
 IR Inten    --     28.2790                74.8323                39.6954

                     64                     65                     66
                      A                      A                      A
 Frequencies --   1490.3405              1522.0471              1546.2350
 Red. masses --      1.5151                 1.3678                 1.0826
 Frc consts  --      1.9827                 1.8669                 1.5250
 IR Inten    --      1.0190                35.4678                 9.1473

                     67                     68                     69
                      A                      A                      A
 Frequencies --   1729.9087              1731.8001              2941.0760
 Red. masses --      1.0755                 1.0790                 1.0821
 Frc consts  --      1.8963                 1.9066                 5.5149
 IR Inten    --     56.4726                57.3078                43.0124

                     70                     71                     72
                      A                      A                      A
 Frequencies --   3015.5845              3029.9491              3043.6099
 Red. masses --      1.0848                 1.0606                 1.0864
 Frc consts  --      5.8123                 5.7367                 5.9295
 IR Inten    --     27.9242                23.8681                74.0225

                     73                     74                     75
                      A                      A                      A
 Frequencies --   3084.8436              3116.3580              3123.8851
 Red. masses --      1.1018                 1.0873                 1.0869
 Frc consts  --      6.1775                 6.2214                 6.2492
 IR Inten    --     14.4323                13.7658                 9.0275

                     76                     77                     78
                      A                      A                      A
 Frequencies --   3479.9262              3559.9869              3661.5380
 Red. masses --      1.0654                 1.0583                 1.0516
 Frc consts  --      7.6013                 7.9025                 8.3069
 IR Inten    --    286.2079               499.4556               226.1802

                     79                     80                     81
                      A                      A                      A
 Frequencies --   3670.7991              3723.6736              3743.1498
 Red. masses --      1.0645                 1.0661                 1.0657
 Frc consts  --      8.4514                 8.7092                 8.7974
 IR Inten    --     79.2955                19.5332                45.1529

                     82                     83                     84
                      A                      A                      A
 Frequencies --   3760.9925              3802.2170              3808.3041
 Red. masses --      1.0666                 1.0708                 1.0748
 Frc consts  --      8.8887                 9.1206                 9.1846
 IR Inten    --     18.2425                71.6213                81.0633

 - Thermochemistry -
 -------------------
 Temperature   298.150 Kelvin.  Pressure   1.00000 Atm.
 Atom     1 has atomic number  6 and mass  12.00000

 Molecular mass:   216.08452 amu.
 Principal axes and moments of inertia in atomic units:
                           1         2         3
     Eigenvalues --  2697.898063687.307784624.72905
           X            0.99989   0.01484  -0.00131
           Y           -0.01483   0.99985   0.00940
           Z            0.00145  -0.00938   0.99995
 This molecule is an asymmetric top.
 Rotational symmetry number  1.
 Warning -- assumption of classical behavior for rotation
           may cause significant error
 Rotational temperatures (Kelvin)      0.03210     0.02349     0.01873
 Rotational constants (GHZ):           0.66894     0.48945     0.39024
    1 imaginary frequencies ignored.
 Zero-point vibrational energy     649323.9 (Joules/Mol)
                                  155.19214 (Kcal/Mol)
 Warning -- explicit consideration of  29 degrees of freedom as
           vibrations may cause significant error
 Vibrational temperatures:     51.18    69.27    85.69   119.53   138.82
          (Kelvin)            171.38   227.65   257.85   274.06   293.09
                              324.43   347.85   362.85   377.76   391.58
                              411.60   437.98   458.19   492.90   508.16
                              553.01   586.00   628.32   681.70   718.45
                              739.12   760.39   823.69   862.27   909.56
                              949.98  1035.78  1144.84  1169.60  1210.76
                             1275.94  1374.44  1470.27  1507.80  1536.19
                             1557.66  1571.98  1589.78  1598.76  1629.94
                             1644.42  1665.31  1758.75  1791.37  1804.85
                             1828.19  1860.86  1900.23  1913.47  1976.47
                             1990.60  2013.43  2028.02  2033.85  2060.88
                             2086.23  2098.78  2144.26  2189.88  2224.68
                             2488.95  2491.67  4231.55  4338.75  4359.42
                             4379.07  4438.40  4483.74  4494.57  5006.83
                             5122.02  5268.13  5281.45  5357.53  5385.55
                             5411.22  5470.54  5479.29

 Zero-point correction=                           0.247314 (Hartree/Particle)
 Thermal correction to Energy=                    0.264876
 Thermal correction to Enthalpy=                  0.265820
 Thermal correction to Gibbs Free Energy=         0.202523
 Sum of electronic and zero-point Energies=           -839.736669
 Sum of electronic and thermal Energies=              -839.719107
 Sum of electronic and thermal Enthalpies=            -839.718163
 Sum of electronic and thermal Free Energies=         -839.781460

                     E (Thermal)             CV                S
                      KCal/Mol        Cal/Mol-Kelvin    Cal/Mol-Kelvin
 Total                  166.212             64.139            133.221
 Electronic               0.000              0.000              0.000
 Translational            0.889              2.981             42.015
 Rotational               0.889              2.981             32.198
 Vibrational            164.435             58.178             59.008
 Vibration     1          0.594              1.982              5.492
 Vibration     2          0.595              1.978              4.892
 Vibration     3          0.597              1.974              4.472
 Vibration     4          0.600              1.961              3.817
 Vibration     5          0.603              1.952              3.524
 Vibration     6          0.609              1.933              3.115
 Vibration     7          0.621              1.893              2.571
 Vibration     8          0.629              1.868              2.337
 Vibration     9          0.634              1.853              2.223
 Vibration    10          0.639              1.835              2.099
 Vibration    11          0.650              1.802              1.915
 Vibration    12          0.658              1.776              1.790
 Vibration    13          0.664              1.759              1.715
 Vibration    14          0.670              1.741              1.645
 Vibration    15          0.675              1.725              1.582
 Vibration    16          0.684              1.700              1.497
 Vibration    17          0.695              1.665              1.393
 Vibration    18          0.705              1.638              1.318
 Vibration    19          0.722              1.590              1.200
 Vibration    20          0.729              1.569              1.152
 Vibration    21          0.753              1.504              1.022
 Vibration    22          0.772              1.454              0.936
 Vibration    23          0.797              1.390              0.837
 Vibration    24          0.831              1.308              0.727
 Vibration    25          0.855              1.251              0.660
 Vibration    26          0.869              1.220              0.625
 Vibration    27          0.883              1.187              0.591
 Vibration    28          0.929              1.091              0.499
 Vibration    29          0.957              1.033              0.451

 Optimization completed.
    -- Stationary point found.
 Normal termination of Gaussian 09 at Tue Jan 31 07:35:06 2017.
