 Gaussian 09, Revision E.01,
 Gaussian 09:  ES64L-G09RevE.01 30-Nov-2015

 ----------------------------------------------------------------------
 # opt=(calcfc,ts,noeigentest,maxcycle=1000,cartesian) b3lyp 6-31g(d) f
 req
 ----------------------------------------------------------------------

 -------------------------------------------
 ./6/glo_2w_alpha_boat6_B3LYP_631Gd_iopt.out
 -------------------------------------------
 Symbolic Z-matrix:
 Charge =  0 Multiplicity = 1

 SCF Done:  E(RB3LYP) =  -840.003963645     A.U. after   13 cycles
 Optimization completed.
    -- Stationary point found.
 Normal termination of Gaussian 09 at Tue Jan 31 07:19:14 2017.

 --------------------------------------------------------------------
 #N Geom=AllCheck Guess=TCheck SCRF=Check GenChk RB3LYP/6-31G(d) Freq
 --------------------------------------------------------------------

 Structure from the checkpoint file:  "/scratch/10501396.yak.local/Gau-19039.chk"
 -------------------------------------------
 ./6/glo_2w_alpha_boat6_B3LYP_631Gd_iopt.out
 -------------------------------------------
 Charge =  0 Multiplicity = 1

                         Standard orientation:
 ---------------------------------------------------------------------
 Center     Atomic      Atomic             Coordinates (Angstroms)
 Number     Number       Type             X           Y           Z
 ---------------------------------------------------------------------
      1          6           0       -0.269590    0.941160    0.563460
      2          6           0        2.158610    0.368220    0.057160
      3          6           0        1.134130    0.691150    1.161010
      4          6           0        1.691670   -0.761050   -0.915180
      5          1           0        1.907860   -0.405990   -1.930320
      6          1           0        3.076020    0.016469    0.546320
      7          1           0       -1.009130    0.587580    1.294890
      8          1           0        1.472190    1.605170    1.662120
      9          6           0        0.170840   -0.997870   -0.830890
     10          8           0       -0.505520    0.239610   -0.681340
     11          6           0       -0.552560    2.407900    0.243180
     12          1           0       -0.626150    2.978060    1.174690
     13          1           0        0.262640    2.822140   -0.359190
     14          8           0       -1.810820    2.551970   -0.427610
     15          1           0       -1.644500    2.340580   -1.359630
     16          8           0        2.400110   -1.973031   -0.744290
     17          1           0        1.886160   -2.495470   -0.104010
     18          8           0        2.385840    1.595819   -0.642030
     19          1           0        3.099190    1.445559   -1.281590
     20          8           0        1.119460   -0.314400    2.159630
     21          1           0        0.674270   -1.085570    1.754500
     22          8           0       -2.672450   -2.441030    0.204250
     23          1           0       -1.026920   -2.170000    0.221580
     24          1           0       -3.076660   -1.556230    0.009370
     25          1           0       -2.989690   -2.676350    1.088810
     26          8           0       -0.064670   -1.887460    0.234730
     27          1           0       -0.218840   -1.415480   -1.765380
     28          8           0       -3.491920    0.086250   -0.387550
     29          1           0       -4.007360    0.677310    0.180790
     30          1           0       -2.657950    0.573360   -0.531680
 ---------------------------------------------------------------------

 SCF Done:  E(RB3LYP) =  -840.003963644     A.U. after    1 cycles

 The electronic state is 1-A.
 Alpha  occ. eigenvalues --  -19.16902 -19.16378 -19.16193 -19.16062 -19.15687
 Alpha  occ. eigenvalues --  -19.15418 -19.14069 -19.12976 -10.29340 -10.24252
 Alpha  occ. eigenvalues --  -10.23805 -10.23791 -10.23738 -10.23457  -1.08024
 Alpha  occ. eigenvalues --   -1.03573  -1.02845  -1.02333  -1.01782  -1.01048
 Alpha  occ. eigenvalues --   -1.00706  -0.99778  -0.78015  -0.76086  -0.69045
 Alpha  occ. eigenvalues --   -0.64808  -0.62842  -0.58160  -0.54698  -0.53986
 Alpha  occ. eigenvalues --   -0.53594  -0.53426  -0.52414  -0.50914  -0.50107
 Alpha  occ. eigenvalues --   -0.46951  -0.45815  -0.43855  -0.42988  -0.42474
 Alpha  occ. eigenvalues --   -0.41806  -0.41190  -0.40808  -0.39883  -0.38158
 Alpha  occ. eigenvalues --   -0.36504  -0.35420  -0.34116  -0.33540  -0.33124
 Alpha  occ. eigenvalues --   -0.31830  -0.30965  -0.30018  -0.29904  -0.29118
 Alpha  occ. eigenvalues --   -0.27524  -0.25795  -0.24689
 Alpha virt. eigenvalues --    0.04290   0.06299   0.06990   0.08468   0.09781
 Alpha virt. eigenvalues --    0.10644   0.11183   0.12909   0.13890   0.15027
 Alpha virt. eigenvalues --    0.15171   0.15742   0.17095   0.18540   0.19157

 Mulliken charges:
               1
     1  C    0.115947
     2  C    0.096463
     3  C    0.090531
     4  C    0.100522
     5  H    0.133207
     6  H    0.150858
     7  H    0.130132
     8  H    0.150983
     9  C    0.302914
    10  O   -0.539487
    11  C   -0.078858
    12  H    0.152619
    13  H    0.175259
    14  O   -0.630567
    15  H    0.408238
    16  O   -0.636721
    17  H    0.410746
    18  O   -0.637006
    19  H    0.397311
    20  O   -0.663724
    21  H    0.416751
    22  O   -0.821415
    23  H    0.455132
    24  H    0.447286
    25  H    0.397977
    26  O   -0.700488
    27  H    0.149656
    28  O   -0.820997
    29  H    0.404283
    30  H    0.442448
 Sum of Mulliken charges =  -0.00000

 Dipole moment (field-independent basis, Debye):
    X=             -1.7981    Y=              1.2080    Z=             -0.1177  Tot=              2.1694
 Quadrupole moment (field-independent basis, Debye-Ang):
   XX=            -79.9453   YY=            -86.3438   ZZ=            -82.5642
   XY=              4.4065   XZ=            -11.0164   YZ=             -6.0552

  Exact polarizability:  98.518  -0.495  97.308  -3.626  -0.274  84.305
 Approx polarizability: 125.340  -1.115 131.609  -3.482  -3.771 125.134

 ******    1 imaginary frequencies (negative Signs) ******

                      1                      2                      3
                      A                      A                      A
 Frequencies --   -207.1549                38.6548                45.4287
 Red. masses --      1.2440                 4.7560                 5.7110
 Frc consts  --      0.0315                 0.0042                 0.0069
 IR Inten    --     88.0283                 6.5096                 5.1275

                      4                      5                      6
                      A                      A                      A
 Frequencies --     74.8445                99.5854               106.6492
 Red. masses --      5.3306                 5.3294                 4.3406
 Frc consts  --      0.0176                 0.0311                 0.0291
 IR Inten    --      6.1110                 4.0469                 4.7908

                      7                      8                      9
                      A                      A                      A
 Frequencies --    140.3154               156.1538               182.4078
 Red. masses --      3.4704                 3.8120                 6.1374
 Frc consts  --      0.0403                 0.0548                 0.1203
 IR Inten    --      2.0901                32.0035                17.1215

                     10                     11                     12
                      A                      A                      A
 Frequencies --    204.5486               222.0259               238.5822
 Red. masses --      5.5237                 4.5313                 4.4493
 Frc consts  --      0.1362                 0.1316                 0.1492
 IR Inten    --      5.9122                 3.2451                 4.7451

                     13                     14                     15
                      A                      A                      A
 Frequencies --    272.2062               283.7624               291.8302
 Red. masses --      5.1126                 5.0472                 1.1375
 Frc consts  --      0.2232                 0.2394                 0.0571
 IR Inten    --     11.0542                 9.6455               166.5497

                     16                     17                     18
                      A                      A                      A
 Frequencies --    294.5708               333.6373               341.1250
 Red. masses --      1.0926                 2.6044                 1.6530
 Frc consts  --      0.0559                 0.1708                 0.1133
 IR Inten    --     39.5205                27.8906                28.0308

                     19                     20                     21
                      A                      A                      A
 Frequencies --    364.1199               380.3108               392.7431
 Red. masses --      2.9395                 4.3413                 1.8620
 Frc consts  --      0.2296                 0.3700                 0.1692
 IR Inten    --     25.7219                 9.7143                93.8486

                     22                     23                     24
                      A                      A                      A
 Frequencies --    409.3576               421.0079               461.5221
 Red. masses --      2.4583                 1.2248                 4.6044
 Frc consts  --      0.2427                 0.1279                 0.5778
 IR Inten    --    101.8941               112.1955                 6.6776

                     25                     26                     27
                      A                      A                      A
 Frequencies --    493.4768               502.2097               518.5933
 Red. masses --      4.1417                 4.7616                 1.2475
 Frc consts  --      0.5942                 0.7076                 0.1977
 IR Inten    --     30.7829                16.6224               101.0819

                     28                     29                     30
                      A                      A                      A
 Frequencies --    572.8307               649.9519               655.0909
 Red. masses --      4.5378                 2.1448                 1.3437
 Frc consts  --      0.8773                 0.5338                 0.3397
 IR Inten    --      2.8213                 9.0837                91.8064

                     31                     32                     33
                      A                      A                      A
 Frequencies --    677.9901               699.1070               794.6173
 Red. masses --      1.7132                 1.9814                 1.0804
 Frc consts  --      0.4640                 0.5706                 0.4019
 IR Inten    --     27.2425                19.6560               109.2234

                     34                     35                     36
                      A                      A                      A
 Frequencies --    809.9061               848.7208               901.1944
 Red. masses --      3.4027                 3.0098                 4.0368
 Frc consts  --      1.3151                 1.2774                 1.9316
 IR Inten    --     26.6532                35.3727                 4.5244

                     37                     38                     39
                      A                      A                      A
 Frequencies --    924.3978               954.8372              1016.6343
 Red. masses --      2.6135                 1.0974                 2.1870
 Frc consts  --      1.3158                 0.5895                 1.3318
 IR Inten    --     12.6633               159.7023                26.4957

                     40                     41                     42
                      A                      A                      A
 Frequencies --   1044.3440              1051.3431              1067.4524
 Red. masses --      5.6766                 3.1471                 3.0699
 Frc consts  --      3.6477                 2.0495                 2.0610
 IR Inten    --     78.4652                79.8229               167.4790

                     43                     44                     45
                      A                      A                      A
 Frequencies --   1085.7633              1094.4096              1107.0915
 Red. masses --      3.7700                 3.1156                 3.2024
 Frc consts  --      2.6186                 2.1986                 2.3126
 IR Inten    --    106.8357                 7.7047                57.4603

                     46                     47                     48
                      A                      A                      A
 Frequencies --   1114.9908              1120.2181              1163.3074
 Red. masses --      2.8809                 3.4687                 4.5310
 Frc consts  --      2.1102                 2.5646                 3.6127
 IR Inten    --     32.1138               202.3211                65.8780

                     49                     50                     51
                      A                      A                      A
 Frequencies --   1221.8694              1237.5198              1263.5616
 Red. masses --      1.2629                 1.2625                 1.2772
 Frc consts  --      1.1109                 1.1391                 1.2014
 IR Inten    --     11.6190                12.8956                33.9942

                     52                     53                     54
                      A                      A                      A
 Frequencies --   1292.3584              1316.4551              1336.8753
 Red. masses --      1.2911                 1.2771                 1.2262
 Frc consts  --      1.2705                 1.3041                 1.2912
 IR Inten    --     18.2297                22.4578                11.1793

                     55                     56                     57
                      A                      A                      A
 Frequencies --   1361.5955              1366.5549              1385.3916
 Red. masses --      1.2634                 1.3581                 1.2524
 Frc consts  --      1.3800                 1.4943                 1.4162
 IR Inten    --     11.2238                 9.5617                14.3374

                     58                     59                     60
                      A                      A                      A
 Frequencies --   1393.4191              1405.8592              1417.3777
 Red. masses --      1.3309                 1.2536                 1.1899
 Frc consts  --      1.5226                 1.4598                 1.4085
 IR Inten    --     10.6038                49.4421                13.4084

                     61                     62                     63
                      A                      A                      A
 Frequencies --   1436.1882              1442.7472              1458.4674
 Red. masses --      1.3923                 1.2899                 1.4500
 Frc consts  --      1.6920                 1.5819                 1.8172
 IR Inten    --     10.5913                43.7825                29.8415

                     64                     65                     66
                      A                      A                      A
 Frequencies --   1500.7055              1530.7747              1550.7741
 Red. masses --      1.1966                 1.0873                 1.2203
 Frc consts  --      1.5878                 1.5012                 1.7291
 IR Inten    --     54.2844                 2.1417                84.7298

                     67                     68                     69
                      A                      A                      A
 Frequencies --   1679.4883              1748.1880              3035.9256
 Red. masses --      1.0884                 1.0723                 1.0847
 Frc consts  --      1.8088                 1.9308                 5.8905
 IR Inten    --     98.3800                53.8724                31.3558

                     70                     71                     72
                      A                      A                      A
 Frequencies --   3053.9272              3055.3600              3072.6670
 Red. masses --      1.0858                 1.0862                 1.0677
 Frc consts  --      5.9666                 5.9740                 5.9393
 IR Inten    --     27.7331                27.3858                 0.1888

                     73                     74                     75
                      A                      A                      A
 Frequencies --   3080.2643              3084.6752              3130.8450
 Red. masses --      1.0760                 1.0878                 1.1104
 Frc consts  --      6.0148                 6.0982                 6.4131
 IR Inten    --     69.4360                59.2101                19.3230

                     76                     77                     78
                      A                      A                      A
 Frequencies --   3158.8711              3396.8196              3599.1181
 Red. masses --      1.0707                 1.0611                 1.0652
 Frc consts  --      6.2950                 7.2137                 8.1300
 IR Inten    --   1267.7017               694.5053               147.9228

                     79                     80                     81
                      A                      A                      A
 Frequencies --   3676.2705              3702.3655              3743.5063
 Red. masses --      1.0520                 1.0650                 1.0665
 Frc consts  --      8.3769                 8.6009                 8.8057
 IR Inten    --    269.6238                52.8099                15.8371

                     82                     83                     84
                      A                      A                      A
 Frequencies --   3751.1581              3800.8417              3818.4682
 Red. masses --      1.0660                 1.0676                 1.0741
 Frc consts  --      8.8379                 9.0866                 9.2271
 IR Inten    --     28.5973                46.8574               112.6214

 - Thermochemistry -
 -------------------
 Temperature   298.150 Kelvin.  Pressure   1.00000 Atm.
 Atom     1 has atomic number  6 and mass  12.00000

 Molecular mass:   216.08452 amu.
 Principal axes and moments of inertia in atomic units:
                           1         2         3
     Eigenvalues --  2448.060203288.336704559.62192
           X            0.99963   0.02600  -0.00819
           Y           -0.02602   0.99966  -0.00317
           Z            0.00811   0.00339   0.99996
 This molecule is an asymmetric top.
 Rotational symmetry number  1.
 Warning -- assumption of classical behavior for rotation
           may cause significant error
 Rotational temperatures (Kelvin)      0.03538     0.02634     0.01900
 Rotational constants (GHZ):           0.73721     0.54883     0.39581
    1 imaginary frequencies ignored.
 Zero-point vibrational energy     652749.1 (Joules/Mol)
                                  156.01077 (Kcal/Mol)
 Warning -- explicit consideration of  27 degrees of freedom as
           vibrations may cause significant error
 Vibrational temperatures:     55.62    65.36   107.68   143.28   153.44
          (Kelvin)            201.88   224.67   262.44   294.30   319.45
                              343.27   391.64   408.27   419.88   423.82
                              480.03   490.80   523.89   547.18   565.07
                              588.97   605.74   664.03   710.00   722.57
                              746.14   824.17   935.13   942.53   975.48
                             1005.86  1143.28  1165.27  1221.12  1296.62
                             1330.00  1373.80  1462.71  1502.58  1512.65
                             1535.82  1562.17  1574.61  1592.86  1604.22
                             1611.74  1673.74  1758.00  1780.51  1817.98
                             1859.41  1894.08  1923.46  1959.03  1966.17
                             1993.27  2004.82  2022.72  2039.29  2066.35
                             2075.79  2098.41  2159.18  2202.44  2231.22
                             2416.41  2515.25  4368.01  4393.91  4395.98
                             4420.88  4431.81  4438.15  4504.58  4544.91
                             4887.26  5178.32  5289.33  5326.87  5386.06
                             5397.07  5468.56  5493.92

 Zero-point correction=                           0.248619 (Hartree/Particle)
 Thermal correction to Energy=                    0.265332
 Thermal correction to Enthalpy=                  0.266276
 Thermal correction to Gibbs Free Energy=         0.205141
 Sum of electronic and zero-point Energies=           -839.755345
 Sum of electronic and thermal Energies=              -839.738631
 Sum of electronic and thermal Enthalpies=            -839.737687
 Sum of electronic and thermal Free Energies=         -839.798823

                     E (Thermal)             CV                S
                      KCal/Mol        Cal/Mol-Kelvin    Cal/Mol-Kelvin
 Total                  166.499             62.361            128.670
 Electronic               0.000              0.000              0.000
 Translational            0.889              2.981             42.015
 Rotational               0.889              2.981             31.973
 Vibrational            164.721             56.399             54.682
 Vibration     1          0.594              1.981              5.327
 Vibration     2          0.595              1.979              5.007
 Vibration     3          0.599              1.966              4.022
 Vibration     4          0.604              1.949              3.462
 Vibration     5          0.606              1.944              3.329
 Vibration     6          0.615              1.913              2.800
 Vibration     7          0.620              1.896              2.596
 Vibration     8          0.630              1.864              2.304
 Vibration     9          0.640              1.833              2.092
 Vibration    10          0.648              1.808              1.943
 Vibration    11          0.657              1.782              1.813
 Vibration    12          0.675              1.725              1.582
 Vibration    13          0.682              1.704              1.511
 Vibration    14          0.687              1.689              1.463
 Vibration    15          0.689              1.684              1.448
 Vibration    16          0.715              1.608              1.242
 Vibration    17          0.721              1.593              1.207
 Vibration    18          0.738              1.546              1.104
 Vibration    19          0.750              1.512              1.038
 Vibration    20          0.760              1.486              0.990
 Vibration    21          0.774              1.450              0.929
 Vibration    22          0.784              1.425              0.889
 Vibration    23          0.819              1.335              0.762
 Vibration    24          0.849              1.264              0.675
 Vibration    25          0.858              1.245              0.653
 Vibration    26          0.874              1.209              0.613
 Vibration    27          0.929              1.090              0.499

 Optimization completed.
    -- Stationary point found.
 Normal termination of Gaussian 09 at Tue Jan 31 07:37:14 2017.
