 Gaussian 09, Revision E.01,
 Gaussian 09:  ES64L-G09RevE.01 30-Nov-2015

 ----------------------------------------------------------------------
 # opt=(calcfc,ts,noeigentest,maxcycle=1000,cartesian) b3lyp 6-31g(d) f
 req
 ----------------------------------------------------------------------

 ------------------------------------------
 ./6/glo_2w_beta_boat6_B3LYP_631Gd_iopt.out
 ------------------------------------------
 Symbolic Z-matrix:
 Charge =  0 Multiplicity = 1

 SCF Done:  E(RB3LYP) =  -839.997493513     A.U. after   13 cycles
 Optimization completed.
    -- Stationary point found.
 Normal termination of Gaussian 09 at Tue Jan 31 07:20:42 2017.

 --------------------------------------------------------------------
 #N Geom=AllCheck Guess=TCheck SCRF=Check GenChk RB3LYP/6-31G(d) Freq
 --------------------------------------------------------------------

 Structure from the checkpoint file:  "/scratch/10501398.yak.local/Gau-19254.chk"
 ------------------------------------------
 ./6/glo_2w_beta_boat6_B3LYP_631Gd_iopt.out
 ------------------------------------------
 Charge =  0 Multiplicity = 1

                         Standard orientation:
 ---------------------------------------------------------------------
 Center     Atomic      Atomic             Coordinates (Angstroms)
 Number     Number       Type             X           Y           Z
 ---------------------------------------------------------------------
      1          6           0        0.244970    1.162269    0.125671
      2          6           0        2.148479   -0.522333   -0.277839
      3          6           0        1.502970    0.838468   -0.689969
      4          6           0        1.435208   -1.157992    0.932941
      5          1           0        1.796267   -2.189423    1.044581
      6          1           0        3.190869   -0.310854    0.001281
      7          1           0        0.547291    1.495318    1.124311
      8          1           0        1.225470    0.730218   -1.749359
      9          6           0       -0.068922   -1.223791    0.662081
     10          1           0       -0.608782   -1.491481    1.581031
     11          8           0       -0.611171    0.023809    0.221241
     12          6           0       -0.580019    2.252489   -0.536429
     13          1           0        0.036542    3.154859   -0.627169
     14          1           0       -0.880939    1.921620   -1.541589
     15          8           0       -1.733708    2.497180    0.278391
     16          1           0       -2.265498    3.185391   -0.149999
     17          8           0       -0.262343   -2.185621   -0.336079
     18          8           0        1.612509   -0.414723    2.133571
     19          1           0        2.565219   -0.307343    2.279501
     20          8           0        2.195418   -1.434383   -1.361709
     21          1           0        1.313718   -1.859952   -1.390849
     22          8           0        2.386531    1.946437   -0.511369
     23          1           0        3.111341    1.845666   -1.148009
     24          8           0       -3.634510    0.383682    0.311671
     25          1           0       -3.187682   -1.171818   -0.355789
     26          1           0       -2.827250    0.946511    0.322911
     27          1           0       -3.812960    0.212692    1.248831
     28          8           0       -2.937812   -2.067678   -0.705849
     29          1           0       -1.240103   -2.209780   -0.533909
     30          1           0       -3.178942   -2.035908   -1.643409
 ---------------------------------------------------------------------

 SCF Done:  E(RB3LYP) =  -839.997493513     A.U. after    1 cycles

 The electronic state is 1-A.
 Alpha  occ. eigenvalues --  -19.17102 -19.15507 -19.15371 -19.14894 -19.14619
 Alpha  occ. eigenvalues --  -19.13741 -19.13469 -19.12771 -10.27892 -10.24124
 Alpha  occ. eigenvalues --  -10.23687 -10.23625 -10.23594 -10.23408  -1.06354
 Alpha  occ. eigenvalues --   -1.03827  -1.02752  -1.02432  -1.00626  -1.00465
 Alpha  occ. eigenvalues --   -0.99342  -0.98362  -0.77822  -0.75790  -0.69317
 Alpha  occ. eigenvalues --   -0.64015  -0.62366  -0.55730  -0.54856  -0.53731
 Alpha  occ. eigenvalues --   -0.52663  -0.52307  -0.51678  -0.51391  -0.48488
 Alpha  occ. eigenvalues --   -0.46919  -0.45605  -0.45445  -0.42216  -0.41209
 Alpha  occ. eigenvalues --   -0.40585  -0.40485  -0.39582  -0.38475  -0.37690
 Alpha  occ. eigenvalues --   -0.36104  -0.35385  -0.34803  -0.34082  -0.30886
 Alpha  occ. eigenvalues --   -0.30189  -0.29753  -0.28758  -0.28597  -0.28134
 Alpha  occ. eigenvalues --   -0.27300  -0.25530  -0.24408
 Alpha virt. eigenvalues --    0.04715   0.06232   0.07070   0.07507   0.09939
 Alpha virt. eigenvalues --    0.10316   0.12048   0.13698   0.14437   0.15246
 Alpha virt. eigenvalues --    0.16057   0.16675   0.17677   0.18304   0.19282

 Mulliken charges:
               1
     1  C    0.147670
     2  C    0.093519
     3  C    0.094811
     4  C    0.052261
     5  H    0.150693
     6  H    0.120540
     7  H    0.167872
     8  H    0.128789
     9  C    0.355260
    10  H    0.131233
    11  O   -0.540251
    12  C   -0.058185
    13  H    0.158770
    14  H    0.130180
    15  O   -0.628329
    16  H    0.407166
    17  O   -0.677929
    18  O   -0.627606
    19  H    0.399763
    20  O   -0.659332
    21  H    0.421503
    22  O   -0.640641
    23  H    0.397896
    24  O   -0.825126
    25  H    0.439762
    26  H    0.450049
    27  H    0.398082
    28  O   -0.828294
    29  H    0.446873
    30  H    0.393002
 Sum of Mulliken charges =  -0.00000

 Dipole moment (field-independent basis, Debye):
    X=             -0.0906    Y=              3.0794    Z=             -0.7473  Tot=              3.1701
 Quadrupole moment (field-independent basis, Debye-Ang):
   XX=            -76.0951   YY=            -84.1328   ZZ=            -78.4654
   XY=             -2.4682   XZ=              4.2320   YZ=             -5.4845

  Exact polarizability: 101.997   0.845  97.014  -0.378   0.291  84.329
 Approx polarizability: 129.956   3.544 128.115  -1.189   6.425 123.328

 ******    1 imaginary frequencies (negative Signs) ******

                      1                      2                      3
                      A                      A                      A
 Frequencies --    -55.7155                36.8002                41.4921
 Red. masses --      6.4895                 4.9958                 4.8510
 Frc consts  --      0.0119                 0.0040                 0.0049
 IR Inten    --      4.9445                 4.6481                 3.9833

                      4                      5                      6
                      A                      A                      A
 Frequencies --     73.2836                90.7354               132.2706
 Red. masses --      5.5901                 7.0695                 4.6134
 Frc consts  --      0.0177                 0.0343                 0.0476
 IR Inten    --      2.1151                 2.9455                 7.3696

                      7                      8                      9
                      A                      A                      A
 Frequencies --    157.1654               176.6422               193.1491
 Red. masses --      5.1478                 3.5324                 2.5252
 Frc consts  --      0.0749                 0.0649                 0.0555
 IR Inten    --      3.9854                 0.1206                 8.5556

                     10                     11                     12
                      A                      A                      A
 Frequencies --    205.3920               219.7132               246.6477
 Red. masses --      1.6626                 2.3754                 5.3852
 Frc consts  --      0.0413                 0.0676                 0.1930
 IR Inten    --     41.1257                12.7644                 1.7236

                     13                     14                     15
                      A                      A                      A
 Frequencies --    266.9238               274.6489               280.6817
 Red. masses --      1.5171                 2.7605                 1.8268
 Frc consts  --      0.0637                 0.1227                 0.0848
 IR Inten    --     90.1060                41.4522               199.8826

                     16                     17                     18
                      A                      A                      A
 Frequencies --    284.2178               312.5037               327.3504
 Red. masses --      2.3314                 3.2842                 1.1937
 Frc consts  --      0.1110                 0.1890                 0.0754
 IR Inten    --     60.1976                78.7456                68.5160

                     19                     20                     21
                      A                      A                      A
 Frequencies --    337.8994               358.2041               378.9526
 Red. masses --      2.2934                 1.7548                 4.2412
 Frc consts  --      0.1543                 0.1327                 0.3588
 IR Inten    --     51.5578                86.9875                15.9166

                     22                     23                     24
                      A                      A                      A
 Frequencies --    427.4450               452.3348               461.0697
 Red. masses --      1.1203                 4.8791                 4.3200
 Frc consts  --      0.1206                 0.5882                 0.5411
 IR Inten    --     22.6967                 5.3646                 9.8470

                     25                     26                     27
                      A                      A                      A
 Frequencies --    480.2972               502.9010               536.8974
 Red. masses --      3.4097                 3.7958                 5.6794
 Frc consts  --      0.4634                 0.5656                 0.9646
 IR Inten    --      3.0641                 5.5449                 7.7936

                     28                     29                     30
                      A                      A                      A
 Frequencies --    549.9367               585.7622               600.4743
 Red. masses --      1.1912                 3.0335                 4.4962
 Frc consts  --      0.2122                 0.6133                 0.9552
 IR Inten    --     26.8376                 6.5205                 3.6219

                     31                     32                     33
                      A                      A                      A
 Frequencies --    624.0885               649.1274               811.4372
 Red. masses --      1.1243                 1.2760                 1.2356
 Frc consts  --      0.2580                 0.3168                 0.4793
 IR Inten    --    100.9166                81.9623               192.3567

                     34                     35                     36
                      A                      A                      A
 Frequencies --    818.4439               858.7339               911.1456
 Red. masses --      2.8210                 2.9113                 2.6685
 Frc consts  --      1.1133                 1.2649                 1.3053
 IR Inten    --      2.5714                27.5408                 8.4435

                     37                     38                     39
                      A                      A                      A
 Frequencies --    932.8317               960.6426              1029.6062
 Red. masses --      1.1429                 2.7129                 3.0110
 Frc consts  --      0.5859                 1.4751                 1.8806
 IR Inten    --    227.5872                52.6693                 3.7338

                     40                     41                     42
                      A                      A                      A
 Frequencies --   1054.3796              1067.5363              1088.6364
 Red. masses --      2.7393                 3.7344                 3.8313
 Frc consts  --      1.7943                 2.5075                 2.6752
 IR Inten    --     43.0789               112.5108                70.5906

                     43                     44                     45
                      A                      A                      A
 Frequencies --   1091.1687              1100.2921              1116.9212
 Red. masses --      5.1805                 4.1395                 3.3935
 Frc consts  --      3.6342                 2.9527                 2.4942
 IR Inten    --     50.6803               191.3217               108.6965

                     46                     47                     48
                      A                      A                      A
 Frequencies --   1119.5165              1140.9648              1153.7893
 Red. masses --      2.7129                 2.4659                 3.8524
 Frc consts  --      2.0033                 1.8913                 3.0216
 IR Inten    --     47.9622                22.4611                82.4625

                     49                     50                     51
                      A                      A                      A
 Frequencies --   1219.2941              1250.5669              1262.6691
 Red. masses --      1.1313                 1.1782                 1.1729
 Frc consts  --      0.9910                 1.0857                 1.1018
 IR Inten    --     29.8391                27.9004                22.6540

                     52                     53                     54
                      A                      A                      A
 Frequencies --   1275.3387              1290.8509              1299.9632
 Red. masses --      1.4161                 1.2134                 1.2207
 Frc consts  --      1.3571                 1.1913                 1.2154
 IR Inten    --     54.0965                24.9814                10.7270

                     55                     56                     57
                      A                      A                      A
 Frequencies --   1335.2994              1350.7384              1370.1555
 Red. masses --      1.2438                 1.2335                 1.2377
 Frc consts  --      1.3066                 1.3260                 1.3690
 IR Inten    --     30.3007                15.1426                 3.8910

                     58                     59                     60
                      A                      A                      A
 Frequencies --   1378.9720              1400.6651              1413.8383
 Red. masses --      1.2346                 1.3041                 1.3571
 Frc consts  --      1.3832                 1.5074                 1.5983
 IR Inten    --      1.2550                 5.0973                 0.7067

                     61                     62                     63
                      A                      A                      A
 Frequencies --   1450.2648              1456.8512              1475.6841
 Red. masses --      1.5318                 1.4463                 1.5773
 Frc consts  --      1.8982                 1.8086                 2.0237
 IR Inten    --     37.6722                 1.4616                 2.7865

                     64                     65                     66
                      A                      A                      A
 Frequencies --   1502.2828              1540.0652              1571.3143
 Red. masses --      1.2269                 1.0847                 1.3227
 Frc consts  --      1.6314                 1.5158                 1.9241
 IR Inten    --     83.9130                 9.0424                56.6551

                     67                     68                     69
                      A                      A                      A
 Frequencies --   1742.1542              1758.9420              3011.1480
 Red. masses --      1.0791                 1.0683                 1.0812
 Frc consts  --      1.9297                 1.9473                 5.7760
 IR Inten    --     81.1796                38.2407                 7.2798

                     70                     71                     72
                      A                      A                      A
 Frequencies --   3021.0824              3024.6779              3034.4960
 Red. masses --      1.0666                 1.0856                 1.0852
 Frc consts  --      5.7355                 5.8517                 5.8878
 IR Inten    --     56.9247                65.4127                51.3291

                     73                     74                     75
                      A                      A                      A
 Frequencies --   3047.5377              3081.3137              3095.7398
 Red. masses --      1.0865                 1.0899                 1.0949
 Frc consts  --      5.9454                 6.0972                 6.1821
 IR Inten    --     53.4217                 6.6253                50.2387

                     76                     77                     78
                      A                      A                      A
 Frequencies --   3239.8755              3372.6870              3543.9022
 Red. masses --      1.0679                 1.0623                 1.0575
 Frc consts  --      6.6047                 7.1196                 7.8251
 IR Inten    --    966.7234               871.8692               441.0944

                     79                     80                     81
                      A                      A                      A
 Frequencies --   3588.2260              3744.0660              3747.8256
 Red. masses --      1.0660                 1.0665                 1.0662
 Frc consts  --      8.0870                 8.8081                 8.8240
 IR Inten    --    144.2846                18.2183                18.5878

                     82                     83                     84
                      A                      A                      A
 Frequencies --   3756.2945              3798.1099              3799.8423
 Red. masses --      1.0664                 1.0692                 1.0670
 Frc consts  --      8.8655                 9.0876                 9.0769
 IR Inten    --     30.3629                70.7626                34.8010

 - Thermochemistry -
 -------------------
 Temperature   298.150 Kelvin.  Pressure   1.00000 Atm.
 Atom     1 has atomic number  6 and mass  12.00000

 Molecular mass:   216.08452 amu.
 Principal axes and moments of inertia in atomic units:
                           1         2         3
     Eigenvalues --  2458.593553502.272164746.47295
           X            0.99999   0.00299   0.00445
           Y           -0.00294   0.99992  -0.01245
           Z           -0.00449   0.01244   0.99991
 This molecule is an asymmetric top.
 Rotational symmetry number  1.
 Warning -- assumption of classical behavior for rotation
           may cause significant error
 Rotational temperatures (Kelvin)      0.03523     0.02473     0.01825
 Rotational constants (GHZ):           0.73405     0.51531     0.38023
    1 imaginary frequencies ignored.
 Zero-point vibrational energy     650611.7 (Joules/Mol)
                                  155.49994 (Kcal/Mol)
 Warning -- explicit consideration of  29 degrees of freedom as
           vibrations may cause significant error
 Vibrational temperatures:     52.95    59.70   105.44   130.55   190.31
          (Kelvin)            226.13   254.15   277.90   295.51   316.12
                              354.87   384.04   395.16   403.84   408.93
                              449.62   470.98   486.16   515.38   545.23
                              615.00   650.81   663.38   691.04   723.56
                              772.47   791.24   842.78   863.95   897.92
                              933.95  1167.48  1177.56  1235.53  1310.93
                             1342.14  1382.15  1481.37  1517.02  1535.94
                             1566.30  1569.95  1583.07  1607.00  1610.73
                             1641.59  1660.04  1754.29  1799.28  1816.70
                             1834.93  1857.24  1870.35  1921.20  1943.41
                             1971.35  1984.03  2015.24  2034.20  2086.61
                             2096.08  2123.18  2161.45  2215.81  2260.77
                             2506.57  2530.72  4332.36  4346.66  4351.83
                             4365.96  4384.72  4433.32  4454.07  4661.45
                             4852.54  5098.88  5162.65  5386.87  5392.28
                             5404.46  5464.63  5467.12

 Zero-point correction=                           0.247805 (Hartree/Particle)
 Thermal correction to Energy=                    0.264621
 Thermal correction to Enthalpy=                  0.265565
 Thermal correction to Gibbs Free Energy=         0.204244
 Sum of electronic and zero-point Energies=           -839.749689
 Sum of electronic and thermal Energies=              -839.732872
 Sum of electronic and thermal Enthalpies=            -839.731928
 Sum of electronic and thermal Free Energies=         -839.793249

                     E (Thermal)             CV                S
                      KCal/Mol        Cal/Mol-Kelvin    Cal/Mol-Kelvin
 Total                  166.052             62.786            129.061
 Electronic               0.000              0.000              0.000
 Translational            0.889              2.981             42.015
 Rotational               0.889              2.981             32.080
 Vibrational            164.275             56.824             54.966
 Vibration     1          0.594              1.982              5.424
 Vibration     2          0.594              1.981              5.187
 Vibration     3          0.599              1.967              4.063
 Vibration     4          0.602              1.956              3.644
 Vibration     5          0.612              1.921              2.913
 Vibration     6          0.621              1.895              2.584
 Vibration     7          0.628              1.871              2.364
 Vibration     8          0.635              1.849              2.197
 Vibration     9          0.640              1.832              2.084
 Vibration    10          0.647              1.811              1.961
 Vibration    11          0.661              1.768              1.754
 Vibration    12          0.672              1.734              1.616
 Vibration    13          0.677              1.720              1.567
 Vibration    14          0.680              1.709              1.530
 Vibration    15          0.683              1.703              1.508
 Vibration    16          0.701              1.650              1.349
 Vibration    17          0.711              1.621              1.273
 Vibration    18          0.718              1.600              1.222
 Vibration    19          0.733              1.558              1.130
 Vibration    20          0.749              1.515              1.043
 Vibration    21          0.789              1.411              0.867
 Vibration    22          0.811              1.356              0.789
 Vibration    23          0.819              1.336              0.763
 Vibration    24          0.837              1.294              0.709
 Vibration    25          0.858              1.244              0.651
 Vibration    26          0.892              1.168              0.572
 Vibration    27          0.905              1.140              0.544
 Vibration    28          0.943              1.062              0.475
 Vibration    29          0.959              1.031              0.449

 Optimization completed.
    -- Stationary point found.
 Normal termination of Gaussian 09 at Tue Jan 31 07:38:03 2017.
