 Gaussian 09, Revision E.01,
 Gaussian 09:  ES64L-G09RevE.01 30-Nov-2015

 ----------------------------
 # OPT FREQ B3LYP/gen gfinput
 ----------------------------

 --------
 BeH2.LOG
 --------
 Symbolic Z-matrix:
 Charge =  0 Multiplicity = 1

 SCF Done:  E(RB3LYP) =  -15.7838406850     A.U. after   10 cycles
 SCF Done:  E(RB3LYP) =  -15.7864926436     A.U. after    9 cycles
 SCF Done:  E(RB3LYP) =  -15.7866050686     A.U. after    9 cycles
 Optimization completed.
    -- Stationary point found.
 Normal termination of Gaussian 09 at Thu Mar  9 18:38:56 2017.

 ------------------------------------------------------------------
 #N Geom=AllCheck Guess=TCheck SCRF=Check GenChk RB3LYP/ChkBas Freq
 ------------------------------------------------------------------

 Structure from the checkpoint file:  "//home/aalrawas/scratch/Gau-27309.chk"
 --------
 BeH2.LOG
 --------
 Charge =  0 Multiplicity = 1

                         Standard orientation:
 ---------------------------------------------------------------------
 Center     Atomic      Atomic             Coordinates (Angstroms)
 Number     Number       Type             X           Y           Z
 ---------------------------------------------------------------------
      1          4           0        0.000000    0.000000    0.000000
      2          1           0        0.000000    0.000000    1.405317
      3          1           0        0.000000    0.000000   -1.405317
 ---------------------------------------------------------------------

 SCF Done:  E(RB3LYP) =  -15.7866050686     A.U. after    1 cycles

 The electronic state is 1-SGG.
 Alpha  occ. eigenvalues --   -4.17339  -0.38939  -0.29116
 Alpha virt. eigenvalues --    0.03266   0.48327   0.63761   0.74112

 Mulliken charges:
               1
     1  Be   0.947600
     2  H   -0.473800
     3  H   -0.473800
 Sum of Mulliken charges =  -0.00000

 Dipole moment (field-independent basis, Debye):
    X=             -0.0000    Y=              0.0000    Z=             -0.0000  Tot=              0.0000
 Quadrupole moment (field-independent basis, Debye-Ang):
   XX=             -7.5670   YY=             -7.5670   ZZ=            -17.8580
   XY=              0.0000   XZ=              0.0000   YZ=              0.0000

  Exact polarizability:   0.000   0.000   0.000  -0.000   0.000  28.318
 Approx polarizability:   0.000  -0.000  -0.000  -0.000  -0.000  40.108

                      1                      2                      3
                     PIU                    PIU                    SGG
 Frequencies --    760.7476               760.7476              1779.7883
 Red. masses --      1.2031                 1.2031                 1.0078
 Frc consts  --      0.4102                 0.4102                 1.8809
 IR Inten    --    718.3962               718.3962                 0.0000

                      4
                     SGU
 Frequencies --   1919.2521
 Red. masses --      1.2031
 Frc consts  --      2.6111
 IR Inten    --    307.7156

 - Thermochemistry -
 -------------------
 Temperature   298.150 Kelvin.  Pressure   1.00000 Atm.
 Atom     1 has atomic number  4 and mass   9.01218

 Molecular mass:    11.02783 amu.
 Principal axes and moments of inertia in atomic units:
                           1         2         3
     Eigenvalues --     0.00000  14.21547  14.21547
           X           -0.00000   1.00000  -0.00000
           Y            0.00000   0.00000   1.00000
           Z            1.00000   0.00000  -0.00000
 This molecule is a prolate symmetric top.
 Rotational symmetry number  2.
 Rotational temperature (Kelvin)      6.09293
 Rotational constant (GHZ):         126.956146
 Zero-point vibrational energy      31225.7 (Joules/Mol)
                                    7.46313 (Kcal/Mol)
 Vibrational temperatures:   1094.54  1094.54  2560.72  2761.37
          (Kelvin)

 Zero-point correction=                           0.011893 (Hartree/Particle)
 Thermal correction to Energy=                    0.014437
 Thermal correction to Enthalpy=                  0.015381
 Thermal correction to Gibbs Free Energy=        -0.004563
 Sum of electronic and zero-point Energies=            -15.774712
 Sum of electronic and thermal Energies=               -15.772168
 Sum of electronic and thermal Enthalpies=             -15.771224
 Sum of electronic and thermal Free Energies=          -15.791168

                     E (Thermal)             CV                S
                      KCal/Mol        Cal/Mol-Kelvin    Cal/Mol-Kelvin
 Total                    9.059              6.447             41.976
 Electronic               0.000              0.000              0.000
 Translational            0.889              2.981             33.146
 Rotational               0.592              1.987              8.341
 Vibrational              7.578              1.479              0.489

 Optimization completed.
    -- Stationary point found.
 Normal termination of Gaussian 09 at Thu Mar  9 18:38:57 2017.
