 Gaussian 09, Revision E.01,
 Gaussian 09:  ES64L-G09RevE.01 30-Nov-2015

 ----------------------------
 # OPT FREQ B3LYP/gen gfinput
 ----------------------------

 -------
 BH3.LOG
 -------
 Symbolic Z-matrix:
 Charge =  0 Multiplicity = 1

 SCF Done:  E(RB3LYP) =  -26.5582008345     A.U. after    9 cycles
 SCF Done:  E(RB3LYP) =  -26.5583583811     A.U. after    8 cycles
 Optimization completed.
    -- Stationary point found.
 Normal termination of Gaussian 09 at Thu Mar  9 18:39:00 2017.

 ------------------------------------------------------------------
 #N Geom=AllCheck Guess=TCheck SCRF=Check GenChk RB3LYP/ChkBas Freq
 ------------------------------------------------------------------

 Structure from the checkpoint file:  "//home/aalrawas/scratch/Gau-27357.chk"
 -------
 BH3.LOG
 -------
 Charge =  0 Multiplicity = 1

                         Standard orientation:
 ---------------------------------------------------------------------
 Center     Atomic      Atomic             Coordinates (Angstroms)
 Number     Number       Type             X           Y           Z
 ---------------------------------------------------------------------
      1          5           0        0.000000    0.000000    0.000000
      2          1           0        0.000000    1.203145    0.000000
      3          1           0        1.041954   -0.601572    0.000000
      4          1           0       -1.041954   -0.601572    0.000000
 ---------------------------------------------------------------------

 SCF Done:  E(RB3LYP) =  -26.5583583811     A.U. after    1 cycles

 The electronic state is 1-A1'.
 Alpha  occ. eigenvalues --   -6.75460  -0.51618  -0.35437  -0.35437
 Alpha virt. eigenvalues --   -0.07504   0.12237   0.15874   0.15874   0.18820
 Alpha virt. eigenvalues --    0.32180   0.32180   0.39786   0.85676   0.85906
 Alpha virt. eigenvalues --    0.85906

 Mulliken charges:
               1
     1  B   -0.126539
     2  H    0.042180
     3  H    0.042180
     4  H    0.042180
 Sum of Mulliken charges =  -0.00000

 Dipole moment (field-independent basis, Debye):
    X=             -0.0000    Y=             -0.0000    Z=              0.0000  Tot=              0.0000
 Quadrupole moment (field-independent basis, Debye-Ang):
   XX=             -9.2161   YY=             -9.2161   ZZ=             -7.2294
   XY=             -0.0000   XZ=             -0.0000   YZ=              0.0000

  Exact polarizability:  16.661   0.000  16.661   0.000   0.000   7.832
 Approx polarizability:  19.371  -0.000  19.371  -0.000  -0.000   9.021

                      1                      2                      3
                     A2"                    E'                     E'
 Frequencies --   1134.3881              1199.6847              1199.6865
 Red. masses --      1.2531                 1.1069                 1.1069
 Frc consts  --      0.9501                 0.9386                 0.9386
 IR Inten    --     86.9671                13.7670                13.7702

                      4                      5                      6
                     A1'                    E'                     E'
 Frequencies --   2538.4173              2684.2772              2684.2789
 Red. masses --      1.0078                 1.1276                 1.1276
 Frc consts  --      3.8261                 4.7869                 4.7869
 IR Inten    --      0.0000               138.0358               138.0142

 - Thermochemistry -
 -------------------
 Temperature   298.150 Kelvin.  Pressure   1.00000 Atm.
 Atom     1 has atomic number  5 and mass  11.00931

 Molecular mass:    14.03278 amu.
 Principal axes and moments of inertia in atomic units:
                           1         2         3
     Eigenvalues --     7.81465   7.81465  15.62931
           X           -0.52573   0.85065   0.00000
           Y            0.85065   0.52573   0.00000
           Z           -0.00000   0.00000   1.00000
 This molecule is an oblate symmetric top.
 Rotational symmetry number  6.
 Rotational temperatures (Kelvin)     11.08351    11.08351     5.54176
 Rotational constants (GHZ):         230.94320   230.94320   115.47160
 Zero-point vibrational energy      68430.8 (Joules/Mol)
                                   16.35535 (Kcal/Mol)
 Vibrational temperatures:   1632.13  1726.08  1726.08  3652.21  3862.07
          (Kelvin)           3862.07

 Zero-point correction=                           0.026064 (Hartree/Particle)
 Thermal correction to Energy=                    0.028952
 Thermal correction to Enthalpy=                  0.029896
 Thermal correction to Gibbs Free Energy=         0.008486
 Sum of electronic and zero-point Energies=            -26.532294
 Sum of electronic and thermal Energies=               -26.529406
 Sum of electronic and thermal Enthalpies=             -26.528462
 Sum of electronic and thermal Free Energies=          -26.549872

                     E (Thermal)             CV                S
                      KCal/Mol        Cal/Mol-Kelvin    Cal/Mol-Kelvin
 Total                   18.168              6.627             45.061
 Electronic               0.000              0.000              0.000
 Translational            0.889              2.981             33.864
 Rotational               0.889              2.981             11.060
 Vibrational             16.390              0.665              0.137

 Optimization completed.
    -- Stationary point found.
 Normal termination of Gaussian 09 at Thu Mar  9 18:39:02 2017.
