 Gaussian 09, Revision E.01,
 Gaussian 09:  ES64L-G09RevE.01 30-Nov-2015

 ----------------------------
 # OPT FREQ B3LYP/gen gfinput
 ----------------------------

 ------
 H2.LOG
 ------
 Symbolic Z-matrix:
 Charge =  0 Multiplicity = 1

 SCF Done:  E(RB3LYP) =  -1.16622923921     A.U. after    7 cycles
 SCF Done:  E(RB3LYP) =  -1.16634702348     A.U. after    4 cycles
 Optimization completed.
    -- Stationary point found.
 Normal termination of Gaussian 09 at Thu Mar  9 18:39:14 2017.

 ------------------------------------------------------------------
 #N Geom=AllCheck Guess=TCheck SCRF=Check GenChk RB3LYP/ChkBas Freq
 ------------------------------------------------------------------

 Structure from the checkpoint file:  "//home/aalrawas/scratch/Gau-27698.chk"
 ------
 H2.LOG
 ------
 Charge =  0 Multiplicity = 1

                         Standard orientation:
 ---------------------------------------------------------------------
 Center     Atomic      Atomic             Coordinates (Angstroms)
 Number     Number       Type             X           Y           Z
 ---------------------------------------------------------------------
      1          1           0        0.000000    0.000000    0.377915
      2          1           0        0.000000    0.000000   -0.377915
 ---------------------------------------------------------------------

 SCF Done:  E(RB3LYP) =  -1.16634702348     A.U. after    1 cycles

 The electronic state is 1-SGG.
 Alpha  occ. eigenvalues --   -0.42836
 Alpha virt. eigenvalues --    0.08322   0.43302   0.92455

 Mulliken charges:
               1
     1  H    0.000000
     2  H    0.000000
 Sum of Mulliken charges =   0.00000

 Dipole moment (field-independent basis, Debye):
    X=              0.0000    Y=              0.0000    Z=              0.0000  Tot=              0.0000
 Quadrupole moment (field-independent basis, Debye-Ang):
   XX=             -2.0199   YY=             -2.0199   ZZ=             -1.5771
   XY=              0.0000   XZ=             -0.0000   YZ=              0.0000

  Exact polarizability:   0.000   0.000   0.000  -0.000   0.000   6.649
 Approx polarizability:   0.000  -0.000  -0.000  -0.000  -0.000   8.202

                      1
                     SGG
 Frequencies --   4380.5102
 Red. masses --      1.0078
 Frc consts  --     11.3942
 IR Inten    --      0.0000

 - Thermochemistry -
 -------------------
 Temperature   298.150 Kelvin.  Pressure   1.00000 Atm.
 Atom     1 has atomic number  1 and mass   1.00783

 Molecular mass:     2.01565 amu.
 Principal axes and moments of inertia in atomic units:
                           1         2         3
     Eigenvalues --    -0.00000   1.02802   1.02802
           X           -0.00000   1.00000  -0.00000
           Y            0.00000   0.00000   1.00000
           Z            1.00000   0.00000  -0.00000
 This molecule is a prolate symmetric top.
 Rotational symmetry number  2.
 Rotational temperature (Kelvin)     84.25297
 Rotational constant (GHZ):        1755.549175
 Zero-point vibrational energy      26201.3 (Joules/Mol)
                                    6.26225 (Kcal/Mol)
 Vibrational temperatures:   6302.57
          (Kelvin)

 Zero-point correction=                           0.009980 (Hartree/Particle)
 Thermal correction to Energy=                    0.012340
 Thermal correction to Enthalpy=                  0.013284
 Thermal correction to Gibbs Free Energy=        -0.001541
 Sum of electronic and zero-point Energies=             -1.156367
 Sum of electronic and thermal Energies=                -1.154007
 Sum of electronic and thermal Enthalpies=              -1.153063
 Sum of electronic and thermal Free Energies=           -1.167888

                     E (Thermal)             CV                S
                      KCal/Mol        Cal/Mol-Kelvin    Cal/Mol-Kelvin
 Total                    7.743              4.968             31.201
 Electronic               0.000              0.000              0.000
 Translational            0.889              2.981             28.080
 Rotational               0.592              1.987              3.121
 Vibrational              6.262              0.000              0.000

 Optimization completed.
    -- Stationary point found.
 Normal termination of Gaussian 09 at Thu Mar  9 18:39:16 2017.
