 Gaussian 09, Revision E.01,
 Gaussian 09:  ES64L-G09RevE.01 30-Nov-2015

 ----------------------------
 # OPT FREQ B3LYP/gen gfinput
 ----------------------------

 -------
 NH3.LOG
 -------
 Symbolic Z-matrix:
 Charge =  0 Multiplicity = 1

 SCF Done:  E(RB3LYP) =  -56.4387817921     A.U. after   11 cycles
 SCF Done:  E(RB3LYP) =  -56.4400667578     A.U. after    9 cycles
 SCF Done:  E(RB3LYP) =  -56.4401137256     A.U. after    7 cycles
 SCF Done:  E(RB3LYP) =  -56.4401208967     A.U. after    7 cycles
 Optimization completed.
    -- Stationary point found.
 Normal termination of Gaussian 09 at Thu Mar  9 18:39:26 2017.

 ------------------------------------------------------------------
 #N Geom=AllCheck Guess=TCheck SCRF=Check GenChk RB3LYP/ChkBas Freq
 ------------------------------------------------------------------

 Structure from the checkpoint file:  "//home/aalrawas/scratch/Gau-27781.chk"
 -------
 NH3.LOG
 -------
 Charge =  0 Multiplicity = 1

                         Standard orientation:
 ---------------------------------------------------------------------
 Center     Atomic      Atomic             Coordinates (Angstroms)
 Number     Number       Type             X           Y           Z
 ---------------------------------------------------------------------
      1          7           0        0.000000    0.119530   -0.000000
      2          1           0        0.961981   -0.278660   -0.000000
      3          1           0       -0.480991   -0.279024    0.833019
      4          1           0       -0.480991   -0.279024   -0.833019
 ---------------------------------------------------------------------

 SCF Done:  E(RB3LYP) =  -56.4401208967     A.U. after    1 cycles

 The electronic state is 1-A'.
 Alpha  occ. eigenvalues --  -14.29034  -0.85691  -0.45424  -0.45418  -0.24273
 Alpha virt. eigenvalues --    0.07565   0.14856   0.14857   0.37570   0.64975
 Alpha virt. eigenvalues --    0.64986   0.80456   1.03053   1.03056   1.04938

 Mulliken charges:
               1
     1  N   -0.670187
     2  H    0.223417
     3  H    0.223385
     4  H    0.223385
 Sum of Mulliken charges =  -0.00000

 Dipole moment (field-independent basis, Debye):
    X=              0.0004    Y=             -2.3219    Z=              0.0000  Tot=              2.3219
 Quadrupole moment (field-independent basis, Debye-Ang):
   XX=             -6.3016   YY=             -9.1013   ZZ=             -6.3024
   XY=              0.0007   XZ=              0.0000   YZ=              0.0000

  Exact polarizability:   9.425   0.002   6.125  -0.000  -0.000   9.424
 Approx polarizability:  11.005   0.002   6.639  -0.000  -0.000  11.004

                      1                      2                      3
                     A'                     A"                     A'
 Frequencies --   1050.1555              1708.9687              1709.1966
 Red. masses --      1.1864                 1.0670                 1.0669
 Frc consts  --      0.7709                 1.8360                 1.8364
 IR Inten    --    129.0585                 5.9522                 5.9499

                      4                      5                      6
                     A'                     A"                     A'
 Frequencies --   3262.9438              3408.9830              3409.6768
 Red. masses --      1.0224                 1.0873                 1.0873
 Frc consts  --      6.4133                 7.4448                 7.4480
 IR Inten    --     10.4532                 2.7794                 2.7624

 - Thermochemistry -
 -------------------
 Temperature   298.150 Kelvin.  Pressure   1.00000 Atm.
 Atom     1 has atomic number  7 and mass  14.00307

 Molecular mass:    17.02655 amu.
 Principal axes and moments of inertia in atomic units:
                           1         2         3
     Eigenvalues --     6.40449   6.40547   9.99068
           X            1.00000   0.00000  -0.00035
           Y            0.00035   0.00000   1.00000
           Z           -0.00000   1.00000   0.00000
 This molecule is an asymmetric top.
 Rotational symmetry number  1.
 Rotational temperatures (Kelvin)     13.52391    13.52185     8.66947
 Rotational constants (GHZ):         281.79299   281.74990   180.64257
 Zero-point vibrational energy      87027.9 (Joules/Mol)
                                   20.80016 (Kcal/Mol)
 Vibrational temperatures:   1510.94  2458.82  2459.15  4694.64  4904.76
          (Kelvin)           4905.76

 Zero-point correction=                           0.033147 (Hartree/Particle)
 Thermal correction to Energy=                    0.036014
 Thermal correction to Enthalpy=                  0.036958
 Thermal correction to Gibbs Free Energy=         0.014006
 Sum of electronic and zero-point Energies=            -56.406974
 Sum of electronic and thermal Energies=               -56.404107
 Sum of electronic and thermal Enthalpies=             -56.403163
 Sum of electronic and thermal Free Energies=          -56.426115

                     E (Thermal)             CV                S
                      KCal/Mol        Cal/Mol-Kelvin    Cal/Mol-Kelvin
 Total                   22.599              6.358             48.307
 Electronic               0.000              0.000              0.000
 Translational            0.889              2.981             34.441
 Rotational               0.889              2.981             13.780
 Vibrational             20.822              0.396              0.086

 Optimization completed.
    -- Stationary point found.
 Normal termination of Gaussian 09 at Thu Mar  9 18:39:28 2017.
