 Gaussian 09, Revision E.01,
 Gaussian 09:  ES64L-G09RevE.01 30-Nov-2015

 -------------------------------------
 # b3lyp/6-31g(d) irc=(calcfc,forward)
 -------------------------------------

 --------------------------------
 glo_2w_beta_ts_boat3_B3LYP_631Gd
 --------------------------------
 Symbolic Z-matrix:
 Charge =  0 Multiplicity = 1

 SCF Done:  E(RB3LYP) =  -839.951914508     A.U. after   14 cycles
 SCF Done:  E(RB3LYP) =  -839.952192365     A.U. after   11 cycles
 SCF Done:  E(RB3LYP) =  -839.952984351     A.U. after   11 cycles
 SCF Done:  E(RB3LYP) =  -839.954245966     A.U. after   11 cycles
 SCF Done:  E(RB3LYP) =  -839.955947706     A.U. after   12 cycles
 SCF Done:  E(RB3LYP) =  -839.958035058     A.U. after   12 cycles
 SCF Done:  E(RB3LYP) =  -839.960349692     A.U. after   12 cycles
 SCF Done:  E(RB3LYP) =  -839.962625165     A.U. after   12 cycles
 SCF Done:  E(RB3LYP) =  -839.964609888     A.U. after   12 cycles
 SCF Done:  E(RB3LYP) =  -839.966317274     A.U. after   11 cycles
 SCF Done:  E(RB3LYP) =  -839.967876801     A.U. after   11 cycles

                          Input orientation:
 ---------------------------------------------------------------------
 Center     Atomic      Atomic             Coordinates (Angstroms)
 Number     Number       Type             X           Y           Z
 ---------------------------------------------------------------------
      1          6           0        1.195178    0.194962    0.872087
      2          6           0       -0.490824    1.756065   -0.213708
      3          8           0       -0.144230   -0.742362   -0.953835
      4          6           0       -1.027574    0.731302   -1.245504
      5          6           0        1.172182   -0.476607   -0.521532
      6          6           0       -0.027118    1.108830    1.096681
      7          1           0       -0.638615    0.947270   -2.243578
      8          1           0        0.298968    1.912589    1.775343
      9          1           0       -1.328258    2.431506    0.003131
     10          1           0        1.627406    0.242375   -1.221927
     11          1           0        1.187095   -0.578039    1.658961
     12          6           0        2.050849   -1.736510   -0.543446
     13          1           0        1.996450   -2.221434   -1.526136
     14          1           0        1.715602   -2.454735    0.211494
     15          8           0       -2.312737    0.456838   -1.264700
     16          8           0        3.410949   -1.403443   -0.200646
     17          1           0        3.836487   -1.060520   -1.002410
     18          8           0        0.565363    2.518391   -0.790017
     19          1           0        1.389215    2.321044   -0.307773
     20          8           0       -1.141188    0.414000    1.626522
     21          1           0       -0.878750   -0.024176    2.450388
     22          8           0        2.363906    1.011236    1.002376
     23          1           0        3.108915    0.420723    0.777927
     24          8           0       -1.470200   -2.286433    0.478761
     25          1           0       -2.708192   -1.503352    0.582674
     26          1           0       -0.904613   -1.664583   -0.084266
     27          1           0       -1.610923   -3.070246   -0.073535
     28          8           0       -3.440643   -0.809775    0.483648
     29          1           0       -4.133528   -1.217116   -0.058327
     30          1           0       -2.745527    0.087969   -0.394807
 ---------------------------------------------------------------------

 Alpha  occ. eigenvalues --  -19.18052 -19.15861 -19.15406 -19.14614 -19.14117
 Alpha  occ. eigenvalues --  -19.13805 -19.13782 -19.13051 -10.28807 -10.24995
 Alpha  occ. eigenvalues --  -10.24449 -10.24339 -10.24086 -10.23886  -1.05424
 Alpha  occ. eigenvalues --   -1.04591  -1.03510  -1.02363  -1.01438  -1.01004
 Alpha  occ. eigenvalues --   -0.99568  -0.97320  -0.77041  -0.75297  -0.70021
 Alpha  occ. eigenvalues --   -0.65092  -0.62300  -0.58534  -0.55102  -0.53900
 Alpha  occ. eigenvalues --   -0.53414  -0.51968  -0.51585  -0.50060  -0.49208
 Alpha  occ. eigenvalues --   -0.47385  -0.46599  -0.45582  -0.43232  -0.42409
 Alpha  occ. eigenvalues --   -0.41546  -0.40277  -0.39903  -0.39331  -0.37319
 Alpha  occ. eigenvalues --   -0.36067  -0.35389  -0.34651  -0.33859  -0.32260
 Alpha  occ. eigenvalues --   -0.30302  -0.29916  -0.29396  -0.28999  -0.28005
 Alpha  occ. eigenvalues --   -0.27280  -0.25782  -0.24381
 Alpha virt. eigenvalues --    0.02672   0.04780   0.06066   0.07961   0.09120
 Alpha virt. eigenvalues --    0.10208   0.11217   0.12101   0.13472   0.14136
 Alpha virt. eigenvalues --    0.14751   0.15857   0.17342   0.18580   0.19524

 Mulliken charges:
               1
     1  C    0.069723
     2  C    0.089030
     3  O   -0.624810
     4  C    0.334022
     5  C    0.146228
     6  C    0.090432
     7  H    0.162463
     8  H    0.148216
     9  H    0.163101
    10  H    0.117988
    11  H    0.123546
    12  C   -0.086714
    13  H    0.149076
    14  H    0.165658
    15  O   -0.618133
    16  O   -0.620829
    17  H    0.404167
    18  O   -0.662217
    19  H    0.418773
    20  O   -0.621021
    21  H    0.403224
    22  O   -0.656247
    23  H    0.410828
    24  O   -0.839480
    25  H    0.448836
    26  H    0.458779
    27  H    0.384845
    28  O   -0.817063
    29  H    0.385754
    30  H    0.471822
 Sum of Mulliken charges =  -0.00000

 Dipole moment (field-independent basis, Debye):
    X=              2.0076    Y=             -3.2781    Z=             -0.7720  Tot=              3.9207
 Quadrupole moment (field-independent basis, Debye-Ang):
   XX=            -78.2561   YY=            -83.0861   ZZ=            -82.1430
   XY=              4.6357   XZ=             -3.2508   YZ=              5.6949

  Exact polarizability:   0.000   0.000   0.000   0.000   0.000   0.000
 Approx polarizability: 151.595   1.009 132.651  -0.682  -6.480 120.124

 Normal termination of Gaussian 09 at Sat Jan 14 00:52:58 2017.
