 Gaussian 09, Revision E.01,
 Gaussian 09:  ES64L-G09RevE.01 30-Nov-2015

 -------------------------------------
 # b3lyp/6-31g(d) irc=(calcfc,forward)
 -------------------------------------

 ---------------------------------
 glo_1w_alpha_ts_boat3_B3LYP_631Gd
 ---------------------------------
 Symbolic Z-matrix:
 Charge =  0 Multiplicity = 1

 SCF Done:  E(RB3LYP) =  -839.955598093     A.U. after   14 cycles
 SCF Done:  E(RB3LYP) =  -839.955956690     A.U. after   11 cycles
 SCF Done:  E(RB3LYP) =  -839.956854104     A.U. after   12 cycles
 SCF Done:  E(RB3LYP) =  -839.957982897     A.U. after   12 cycles
 SCF Done:  E(RB3LYP) =  -839.959109063     A.U. after   11 cycles
 SCF Done:  E(RB3LYP) =  -839.960185586     A.U. after   11 cycles
 SCF Done:  E(RB3LYP) =  -839.961215477     A.U. after   11 cycles
 SCF Done:  E(RB3LYP) =  -839.962210797     A.U. after   11 cycles
 SCF Done:  E(RB3LYP) =  -839.963156293     A.U. after   11 cycles
 SCF Done:  E(RB3LYP) =  -839.963177671     A.U. after   10 cycles
 SCF Done:  E(RB3LYP) =  -839.964112542     A.U. after   11 cycles
 SCF Done:  E(RB3LYP) =  -839.965030566     A.U. after   11 cycles

                          Input orientation:
 ---------------------------------------------------------------------
 Center     Atomic      Atomic             Coordinates (Angstroms)
 Number     Number       Type             X           Y           Z
 ---------------------------------------------------------------------
      1          6           0       -0.481014   -0.198100    0.937217
      2          6           0        0.686021    1.458814   -0.678988
      3          8           0        1.028627   -1.035990   -0.855433
      4          6           0        1.886721    0.538563   -0.537844
      5          6           0       -0.201784   -1.274111   -0.129972
      6          6           0       -0.426006    1.245338    0.370671
      7          1           0       -0.215156    1.897842    1.230274
      8          1           0        0.234850    1.265686   -1.663061
      9          1           0       -0.084760   -2.229458    0.399529
     10          1           0       -1.495192   -0.376138    1.309026
     11          6           0       -1.283235   -1.405740   -1.205886
     12          1           0       -0.951172   -2.127384   -1.963646
     13          1           0       -1.461648   -0.444146   -1.688714
     14          8           0       -2.545762   -1.796434   -0.655908
     15          1           0       -2.437150   -2.645618   -0.199083
     16          8           0        1.238624    2.766235   -0.635616
     17          1           0        0.501663    3.380168   -0.786583
     18          8           0       -1.621895    1.638010   -0.294686
     19          1           0       -2.404975    1.358926    0.232499
     20          8           0        0.363540   -0.355945    2.060072
     21          1           0        1.247249   -0.018677    1.793371
     22          1           0        2.459890    0.438289   -1.474958
     23          8           0        2.496222    0.426330    0.562564
     24          8           0        3.021555   -1.970307    0.242213
     25          1           0        3.124670   -1.008452    0.528434
     26          1           0        1.781711   -1.633534   -0.489914
     27          1           0        3.772817   -2.163956   -0.339219
     28          8           0       -3.858691    0.315954    0.683089
     29          1           0       -4.624483    0.630752    0.179360
     30          1           0       -3.541486   -0.475127    0.195562
 ---------------------------------------------------------------------

 Alpha  occ. eigenvalues --  -19.19083 -19.18697 -19.16621 -19.15218 -19.14509
 Alpha  occ. eigenvalues --  -19.12979 -19.12481 -19.12032 -10.28944 -10.25493
 Alpha  occ. eigenvalues --  -10.24994 -10.23504 -10.23286 -10.22915  -1.07630
 Alpha  occ. eigenvalues --   -1.05312  -1.02896  -1.02318  -1.01239  -1.00771
 Alpha  occ. eigenvalues --   -1.00264  -0.99178  -0.78053  -0.75382  -0.69334
 Alpha  occ. eigenvalues --   -0.64908  -0.62738  -0.57000  -0.55374  -0.55170
 Alpha  occ. eigenvalues --   -0.53662  -0.53141  -0.52365  -0.50374  -0.48865
 Alpha  occ. eigenvalues --   -0.47142  -0.45767  -0.45409  -0.44699  -0.42475
 Alpha  occ. eigenvalues --   -0.41329  -0.40575  -0.39888  -0.39405  -0.37493
 Alpha  occ. eigenvalues --   -0.37087  -0.36034  -0.35748  -0.34862  -0.32579
 Alpha  occ. eigenvalues --   -0.32116  -0.30738  -0.30255  -0.28912  -0.26796
 Alpha  occ. eigenvalues --   -0.26252  -0.25147  -0.24030
 Alpha virt. eigenvalues --    0.01493   0.03859   0.05694   0.07329   0.09754
 Alpha virt. eigenvalues --    0.10363   0.10604   0.11817   0.14572   0.14857
 Alpha virt. eigenvalues --    0.15298   0.16383   0.17605   0.18878   0.19548

 Mulliken charges:
               1
     1  C    0.097268
     2  C    0.125907
     3  O   -0.641260
     4  C    0.292540
     5  C    0.064670
     6  C    0.087181
     7  H    0.149002
     8  H    0.130872
     9  H    0.147432
    10  H    0.148362
    11  C   -0.052600
    12  H    0.145048
    13  H    0.189242
    14  O   -0.629179
    15  H    0.407336
    16  O   -0.634455
    17  H    0.404638
    18  O   -0.696199
    19  H    0.427564
    20  O   -0.667331
    21  H    0.424160
    22  H    0.128370
    23  O   -0.571774
    24  O   -0.810856
    25  H    0.446640
    26  H    0.460625
    27  H    0.404238
    28  O   -0.810121
    29  H    0.397450
    30  H    0.435226
 Sum of Mulliken charges =  -0.00000

 Dipole moment (field-independent basis, Debye):
    X=             -1.4671    Y=             -3.1971    Z=             -3.9801  Tot=              5.3118
 Quadrupole moment (field-independent basis, Debye-Ang):
   XX=            -71.9786   YY=            -76.8346   ZZ=            -90.9094
   XY=             -4.4199   XZ=             -2.9667   YZ=              2.4212

  Exact polarizability:   0.000   0.000   0.000   0.000   0.000   0.000
 Approx polarizability: 143.190   1.518 131.782   5.545  -0.134 127.267

 Normal termination of Gaussian 09 at Sat Jan 14 00:58:56 2017.
