 Gaussian 09, Revision E.01,
 Gaussian 09:  ES64L-G09RevE.01 30-Nov-2015

 -------------------------------------
 # b3lyp/6-31g(d) irc=(calcfc,forward)
 -------------------------------------

 ---------------------------------
 glo_2w_alpha_ts_boat3_B3LYP_631Gd
 ---------------------------------
 Symbolic Z-matrix:
 Charge =  0 Multiplicity = 1

 SCF Done:  E(RB3LYP) =  -839.961356260     A.U. after   14 cycles
 SCF Done:  E(RB3LYP) =  -839.961643468     A.U. after   11 cycles
 SCF Done:  E(RB3LYP) =  -839.962567712     A.U. after   11 cycles
 SCF Done:  E(RB3LYP) =  -839.964185042     A.U. after   11 cycles
 SCF Done:  E(RB3LYP) =  -839.966452695     A.U. after   11 cycles
 SCF Done:  E(RB3LYP) =  -839.969249691     A.U. after   11 cycles
 SCF Done:  E(RB3LYP) =  -839.972346530     A.U. after   12 cycles
 SCF Done:  E(RB3LYP) =  -839.975398549     A.U. after   12 cycles
 SCF Done:  E(RB3LYP) =  -839.977987246     A.U. after   12 cycles
 SCF Done:  E(RB3LYP) =  -839.979916794     A.U. after   11 cycles
 SCF Done:  E(RB3LYP) =  -839.981490034     A.U. after   11 cycles

                          Input orientation:
 ---------------------------------------------------------------------
 Center     Atomic      Atomic             Coordinates (Angstroms)
 Number     Number       Type             X           Y           Z
 ---------------------------------------------------------------------
      1          6           0        1.024534    0.227451    1.091374
      2          6           0        0.468092   -1.505844   -0.749379
      3          8           0       -0.525566    0.679113   -0.788436
      4          6           0       -0.896487   -0.834229   -0.656603
      5          6           0        0.515076    1.242141    0.060067
      6          6           0        1.351367   -1.153809    0.459422
      7          1           0        1.167715   -1.902195    1.241917
      8          1           0        0.944282   -1.074795   -1.640952
      9          1           0        0.057766    2.069956    0.621039
     10          1           0        1.945608    0.643307    1.515732
     11          6           0        1.622517    1.807048   -0.847394
     12          1           0        1.159058    2.410594   -1.642239
     13          1           0        2.179639    0.994202   -1.318317
     14          8           0        2.583105    2.552236   -0.107435
     15          1           0        2.139928    3.338810    0.248449
     16          8           0        0.305251   -2.903939   -0.909987
     17          1           0        1.198350   -3.268241   -1.020670
     18          8           0        2.693236   -1.256128   -0.030399
     19          1           0        3.295904   -1.153354    0.723050
     20          8           0        0.118067    0.086368    2.170885
     21          1           0       -0.652420   -0.401409    1.811470
     22          1           0       -1.476134   -0.969018   -1.575887
     23          8           0       -1.603413   -1.119029    0.460451
     24          8           0       -2.640430    1.900098   -0.544795
     25          1           0       -1.744467    1.460484   -0.697904
     26          1           0       -2.980035    2.133614   -1.421336
     27          8           0       -3.811089   -0.055069    0.327438
     28          1           0       -2.573091   -0.770104    0.395545
     29          1           0       -3.448876    0.841529    0.011506
     30          1           0       -4.133698    0.078114    1.231313
 ---------------------------------------------------------------------

 Alpha  occ. eigenvalues --  -19.17275 -19.15859 -19.15416 -19.15173 -19.15147
 Alpha  occ. eigenvalues --  -19.14846 -19.14639 -19.12345 -10.30179 -10.24354
 Alpha  occ. eigenvalues --  -10.24292 -10.23868 -10.23428 -10.23414  -1.07083
 Alpha  occ. eigenvalues --   -1.03629  -1.02730  -1.02509  -1.01769  -1.01553
 Alpha  occ. eigenvalues --   -1.00038  -0.98644  -0.77430  -0.76721  -0.68772
 Alpha  occ. eigenvalues --   -0.65460  -0.62428  -0.57807  -0.55877  -0.55134
 Alpha  occ. eigenvalues --   -0.54320  -0.53430  -0.51459  -0.50693  -0.49024
 Alpha  occ. eigenvalues --   -0.47191  -0.46118  -0.44716  -0.44106  -0.43366
 Alpha  occ. eigenvalues --   -0.41415  -0.41250  -0.40024  -0.39057  -0.37331
 Alpha  occ. eigenvalues --   -0.36097  -0.35152  -0.34683  -0.33913  -0.32289
 Alpha  occ. eigenvalues --   -0.31270  -0.30119  -0.29817  -0.29167  -0.28960
 Alpha  occ. eigenvalues --   -0.27123  -0.26393  -0.24591
 Alpha virt. eigenvalues --    0.05249   0.05803   0.06734   0.07162   0.09369
 Alpha virt. eigenvalues --    0.09987   0.11498   0.12375   0.12810   0.14502
 Alpha virt. eigenvalues --    0.14899   0.16325   0.17018   0.19142   0.20008

 Mulliken charges:
               1
     1  C    0.107054
     2  C    0.135148
     3  O   -0.615665
     4  C    0.301082
     5  C    0.100912
     6  C    0.064754
     7  H    0.154069
     8  H    0.144118
     9  H    0.139611
    10  H    0.144029
    11  C   -0.055971
    12  H    0.129507
    13  H    0.174785
    14  O   -0.610968
    15  H    0.392382
    16  O   -0.631951
    17  H    0.403999
    18  O   -0.641770
    19  H    0.401291
    20  O   -0.671204
    21  H    0.422436
    22  H    0.155071
    23  O   -0.643052
    24  O   -0.838596
    25  H    0.464017
    26  H    0.399075
    27  O   -0.831003
    28  H    0.460119
    29  H    0.445325
    30  H    0.401395
 Sum of Mulliken charges =  -0.00000

 Dipole moment (field-independent basis, Debye):
    X=             -0.2758    Y=              1.8520    Z=             -1.0757  Tot=              2.1594
 Quadrupole moment (field-independent basis, Debye-Ang):
   XX=            -80.8125   YY=            -81.0251   ZZ=            -82.5371
   XY=             -9.5141   XZ=              2.4611   YZ=             -2.9075

  Exact polarizability:   0.000   0.000   0.000   0.000   0.000   0.000
 Approx polarizability: 134.951   3.163 128.716  -1.282   0.342 124.505

 Normal termination of Gaussian 09 at Sat Jan 14 00:51:57 2017.
