 Gaussian 09, Revision E.01,
 Gaussian 09:  ES64L-G09RevE.01 30-Nov-2015

 -------------------------------------
 # b3lyp/6-31g(d) irc=(calcfc,reverse)
 -------------------------------------

 ---------------------------------
 glo_2w_alpha_ts_boat3_B3LYP_631Gd
 ---------------------------------
 Symbolic Z-matrix:
 Charge =  0 Multiplicity = 1

 SCF Done:  E(RB3LYP) =  -839.961356260     A.U. after   14 cycles
 SCF Done:  E(RB3LYP) =  -839.961600697     A.U. after   11 cycles
 SCF Done:  E(RB3LYP) =  -839.962228995     A.U. after   11 cycles
 SCF Done:  E(RB3LYP) =  -839.963039279     A.U. after   12 cycles
 SCF Done:  E(RB3LYP) =  -839.963840655     A.U. after   11 cycles
 SCF Done:  E(RB3LYP) =  -839.964598689     A.U. after   11 cycles
 SCF Done:  E(RB3LYP) =  -839.965316581     A.U. after   11 cycles
 SCF Done:  E(RB3LYP) =  -839.966005637     A.U. after   11 cycles
 SCF Done:  E(RB3LYP) =  -839.966657238     A.U. after   11 cycles
 SCF Done:  E(RB3LYP) =  -839.966671279     A.U. after   10 cycles
 SCF Done:  E(RB3LYP) =  -839.967313923     A.U. after   11 cycles
 SCF Done:  E(RB3LYP) =  -839.967943549     A.U. after   10 cycles

                          Input orientation:
 ---------------------------------------------------------------------
 Center     Atomic      Atomic             Coordinates (Angstroms)
 Number     Number       Type             X           Y           Z
 ---------------------------------------------------------------------
      1          6           0        1.021225    0.228060    1.090189
      2          6           0        0.474020   -1.506638   -0.756043
      3          8           0       -0.506851    0.733144   -0.803599
      4          6           0       -0.934558   -0.944027   -0.628929
      5          6           0        0.525760    1.266293    0.067428
      6          6           0        1.349969   -1.152577    0.456273
      7          1           0        1.164376   -1.899547    1.238869
      8          1           0        0.941908   -1.071247   -1.650480
      9          1           0        0.074903    2.089413    0.636274
     10          1           0        1.944737    0.643405    1.511120
     11          6           0        1.628188    1.814072   -0.845318
     12          1           0        1.164610    2.416005   -1.641343
     13          1           0        2.178046    0.994854   -1.314256
     14          8           0        2.588002    2.553831   -0.106706
     15          1           0        2.149161    3.345486    0.242801
     16          8           0        0.311755   -2.906642   -0.912657
     17          1           0        1.202633   -3.273801   -1.031401
     18          8           0        2.693355   -1.254802   -0.030245
     19          1           0        3.295049   -1.158420    0.724829
     20          8           0        0.117466    0.087762    2.169467
     21          1           0       -0.640183   -0.423465    1.803825
     22          1           0       -1.495462   -0.977211   -1.577199
     23          8           0       -1.571381   -1.132868    0.456377
     24          8           0       -2.647034    1.922617   -0.548962
     25          1           0       -1.402887    1.274061   -0.707572
     26          1           0       -3.033303    2.134328   -1.412585
     27          8           0       -3.853083   -0.075877    0.342988
     28          1           0       -3.006971   -0.639455    0.411976
     29          1           0       -3.246174    1.194400   -0.143242
     30          1           0       -4.171345    0.016937    1.253708
 ---------------------------------------------------------------------

 Alpha  occ. eigenvalues --  -19.19027 -19.16620 -19.15754 -19.15615 -19.14637
 Alpha  occ. eigenvalues --  -19.14578 -19.12104 -19.11794 -10.28953 -10.24972
 Alpha  occ. eigenvalues --  -10.23721 -10.23707 -10.23689 -10.23522  -1.07155
 Alpha  occ. eigenvalues --   -1.03662  -1.02988  -1.02522  -1.01962  -1.01104
 Alpha  occ. eigenvalues --   -0.99859  -0.98780  -0.77940  -0.75581  -0.68637
 Alpha  occ. eigenvalues --   -0.65014  -0.62379  -0.57010  -0.55380  -0.54730
 Alpha  occ. eigenvalues --   -0.54572  -0.53200  -0.51634  -0.50137  -0.48994
 Alpha  occ. eigenvalues --   -0.46760  -0.46040  -0.45059  -0.44500  -0.43152
 Alpha  occ. eigenvalues --   -0.41555  -0.41346  -0.39841  -0.38496  -0.37249
 Alpha  occ. eigenvalues --   -0.36289  -0.36100  -0.35104  -0.34575  -0.32445
 Alpha  occ. eigenvalues --   -0.31622  -0.31000  -0.29071  -0.28653  -0.27808
 Alpha  occ. eigenvalues --   -0.26264  -0.25142  -0.24214
 Alpha virt. eigenvalues --    0.03375   0.05306   0.06071   0.06698   0.09165
 Alpha virt. eigenvalues --    0.10169   0.11103   0.11833   0.12358   0.14602
 Alpha virt. eigenvalues --    0.14806   0.16250   0.17142   0.17851   0.20140

 Mulliken charges:
               1
     1  C    0.113234
     2  C    0.132792
     3  O   -0.647773
     4  C    0.312415
     5  C    0.072699
     6  C    0.066835
     7  H    0.155253
     8  H    0.134640
     9  H    0.149311
    10  H    0.144066
    11  C   -0.050197
    12  H    0.129574
    13  H    0.178486
    14  O   -0.609394
    15  H    0.392428
    16  O   -0.634805
    17  H    0.402579
    18  O   -0.642757
    19  H    0.400604
    20  O   -0.671203
    21  H    0.422795
    22  H    0.131689
    23  O   -0.601006
    24  O   -0.829636
    25  H    0.475024
    26  H    0.406523
    27  O   -0.833842
    28  H    0.452639
    29  H    0.446653
    30  H    0.400375
 Sum of Mulliken charges =  -0.00000

 Dipole moment (field-independent basis, Debye):
    X=             -0.2220    Y=              2.4243    Z=             -1.2342  Tot=              2.7295
 Quadrupole moment (field-independent basis, Debye-Ang):
   XX=            -80.4532   YY=            -80.3637   ZZ=            -82.6794
   XY=            -10.1829   XZ=              2.7789   YZ=             -3.1429

  Exact polarizability:   0.000   0.000   0.000   0.000   0.000   0.000
 Approx polarizability: 137.584   3.951 130.059  -4.073  -1.757 129.697

 Normal termination of Gaussian 09 at Sat Jan 14 00:59:02 2017.
