 Gaussian 09, Revision E.01,
 Gaussian 09:  ES64L-G09RevE.01 30-Nov-2015

 -------------------------------------
 # b3lyp/6-31g(d) irc=(calcfc,reverse)
 -------------------------------------

 --------------------------------
 glo_2w_beta_ts_boat3_B3LYP_631Gd
 --------------------------------
 Symbolic Z-matrix:
 Charge =  0 Multiplicity = 1

 SCF Done:  E(RB3LYP) =  -839.951914508     A.U. after   14 cycles
 SCF Done:  E(RB3LYP) =  -839.952205657     A.U. after   11 cycles
 SCF Done:  E(RB3LYP) =  -839.953076887     A.U. after   11 cycles
 SCF Done:  E(RB3LYP) =  -839.954462425     A.U. after   12 cycles
 SCF Done:  E(RB3LYP) =  -839.956185034     A.U. after   12 cycles
 SCF Done:  E(RB3LYP) =  -839.957969583     A.U. after   12 cycles
 SCF Done:  E(RB3LYP) =  -839.959516221     A.U. after   12 cycles
 SCF Done:  E(RB3LYP) =  -839.960782706     A.U. after   11 cycles
 SCF Done:  E(RB3LYP) =  -839.961911919     A.U. after   11 cycles
 SCF Done:  E(RB3LYP) =  -839.962974134     A.U. after   11 cycles
 SCF Done:  E(RB3LYP) =  -839.963988578     A.U. after   11 cycles

                          Input orientation:
 ---------------------------------------------------------------------
 Center     Atomic      Atomic             Coordinates (Angstroms)
 Number     Number       Type             X           Y           Z
 ---------------------------------------------------------------------
      1          6           0        1.195418    0.193552    0.875044
      2          6           0       -0.494386    1.763440   -0.212451
      3          8           0       -0.121773   -0.802113   -0.939817
      4          6           0       -1.096033    0.810103   -1.282757
      5          6           0        1.180704   -0.493595   -0.507720
      6          6           0       -0.028493    1.107406    1.094310
      7          1           0       -0.556792    0.898648   -2.241844
      8          1           0        0.300578    1.910106    1.773457
      9          1           0       -1.318948    2.447360    0.028088
     10          1           0        1.574188    0.233125   -1.230797
     11          1           0        1.189624   -0.575058    1.666397
     12          6           0        2.060561   -1.738337   -0.541306
     13          1           0        1.999367   -2.218742   -1.525932
     14          1           0        1.724209   -2.459579    0.211125
     15          8           0       -2.290658    0.480686   -1.282914
     16          8           0        3.415152   -1.403546   -0.200208
     17          1           0        3.844161   -1.067024   -1.002573
     18          8           0        0.566342    2.517821   -0.790920
     19          1           0        1.387667    2.330734   -0.301768
     20          8           0       -1.140455    0.412768    1.625651
     21          1           0       -0.881484   -0.015265    2.455968
     22          8           0        2.363559    1.010112    0.999856
     23          1           0        3.111227    0.419137    0.785232
     24          8           0       -1.474240   -2.283063    0.482946
     25          1           0       -2.350699   -1.747687    0.567665
     26          1           0       -0.656318   -1.410665   -0.286877
     27          1           0       -1.680984   -3.056422   -0.063638
     28          8           0       -3.462728   -0.814060    0.493131
     29          1           0       -4.168361   -1.155576   -0.077485
     30          1           0       -3.025145   -0.102738   -0.065592
 ---------------------------------------------------------------------

 Alpha  occ. eigenvalues --  -19.18154 -19.16199 -19.15575 -19.15549 -19.14373
 Alpha  occ. eigenvalues --  -19.13893 -19.13429 -19.10725 -10.26709 -10.25083
 Alpha  occ. eigenvalues --  -10.24766 -10.24649 -10.24646 -10.23285  -1.05830
 Alpha  occ. eigenvalues --   -1.04506  -1.03467  -1.02637  -1.01399  -1.01158
 Alpha  occ. eigenvalues --   -1.00406  -0.97948  -0.77816  -0.75000  -0.69567
 Alpha  occ. eigenvalues --   -0.65263  -0.61537  -0.57884  -0.55344  -0.53888
 Alpha  occ. eigenvalues --   -0.53051  -0.51970  -0.51695  -0.49823  -0.49317
 Alpha  occ. eigenvalues --   -0.47848  -0.46157  -0.45306  -0.42969  -0.42739
 Alpha  occ. eigenvalues --   -0.41866  -0.40683  -0.39820  -0.39642  -0.37606
 Alpha  occ. eigenvalues --   -0.36238  -0.35950  -0.34720  -0.34127  -0.32454
 Alpha  occ. eigenvalues --   -0.30981  -0.30364  -0.29281  -0.28493  -0.28141
 Alpha  occ. eigenvalues --   -0.26830  -0.25459  -0.22699
 Alpha virt. eigenvalues --    0.02269   0.04138   0.05769   0.07895   0.08973
 Alpha virt. eigenvalues --    0.09688   0.10985   0.11851   0.13266   0.14298
 Alpha virt. eigenvalues --    0.14710   0.15851   0.17308   0.18620   0.19770

 Mulliken charges:
               1
     1  C    0.069798
     2  C    0.088502
     3  O   -0.662193
     4  C    0.331311
     5  C    0.120871
     6  C    0.082936
     7  H    0.127779
     8  H    0.148931
     9  H    0.161431
    10  H    0.135579
    11  H    0.125033
    12  C   -0.084970
    13  H    0.151237
    14  H    0.165939
    15  O   -0.548919
    16  O   -0.621044
    17  H    0.404671
    18  O   -0.665009
    19  H    0.417085
    20  O   -0.618622
    21  H    0.402593
    22  O   -0.655072
    23  H    0.411900
    24  O   -0.835405
    25  H    0.455751
    26  H    0.471309
    27  H    0.389176
    28  O   -0.813469
    29  H    0.388797
    30  H    0.454077
 Sum of Mulliken charges =  -0.00000

 Dipole moment (field-independent basis, Debye):
    X=              2.3043    Y=             -3.5259    Z=             -0.3730  Tot=              4.2286
 Quadrupole moment (field-independent basis, Debye-Ang):
   XX=            -77.5504   YY=            -82.9910   ZZ=            -82.6385
   XY=              4.8328   XZ=             -3.9188   YZ=              6.1926

  Exact polarizability:   0.000   0.000   0.000   0.000   0.000   0.000
 Approx polarizability: 154.937   5.097 128.503  -1.073  -5.012 120.935

 Normal termination of Gaussian 09 at Sat Jan 14 00:58:27 2017.
