 Gaussian 09, Revision D.01,
 Gaussian 09:  ES64L-G09RevD.01 24-Apr-2013

 --------------------------------------------------
 # b3lyp/6-31g(d) irc=(calcfc,forward,maxpoints=20)
 --------------------------------------------------

 --------------------------------
 glo_1w_beta_ts_boat3_B3LYP_631Gd
 --------------------------------
 Symbolic Z-matrix:
 Charge =  0 Multiplicity = 1

 SCF Done:  E(RB3LYP) =  -839.950236740     A.U. after   14 cycles
 SCF Done:  E(RB3LYP) =  -839.950615664     A.U. after   11 cycles
 SCF Done:  E(RB3LYP) =  -839.951565204     A.U. after   11 cycles
 SCF Done:  E(RB3LYP) =  -839.952758895     A.U. after   12 cycles
 SCF Done:  E(RB3LYP) =  -839.953943025     A.U. after   11 cycles
 SCF Done:  E(RB3LYP) =  -839.955067928     A.U. after   11 cycles
 SCF Done:  E(RB3LYP) =  -839.956144944     A.U. after   11 cycles
 SCF Done:  E(RB3LYP) =  -839.957192628     A.U. after   11 cycles
 SCF Done:  E(RB3LYP) =  -839.958204871     A.U. after   11 cycles
 SCF Done:  E(RB3LYP) =  -839.958216950     A.U. after   10 cycles
 SCF Done:  E(RB3LYP) =  -839.962083687     A.U. after   10 cycles
 SCF Done:  E(RB3LYP) =  -839.962982719     A.U. after   11 cycles
 SCF Done:  E(RB3LYP) =  -839.963866981     A.U. after   10 cycles
 SCF Done:  E(RB3LYP) =  -839.964716917     A.U. after   11 cycles
 SCF Done:  E(RB3LYP) =  -839.965539563     A.U. after   10 cycles
 SCF Done:  E(RB3LYP) =  -839.966333124     A.U. after   11 cycles
 SCF Done:  E(RB3LYP) =  -839.967097656     A.U. after   10 cycles
 SCF Done:  E(RB3LYP) =  -839.967829705     A.U. after   11 cycles
 SCF Done:  E(RB3LYP) =  -839.968525510     A.U. after   11 cycles
 SCF Done:  E(RB3LYP) =  -839.968537393     A.U. after   10 cycles

                          Input orientation:
 ---------------------------------------------------------------------
 Center     Atomic      Atomic             Coordinates (Angstroms)
 Number     Number       Type             X           Y           Z
 ---------------------------------------------------------------------
      1          6           0        0.590578   -0.922104   -0.380973
      2          6           0       -1.490734   -0.192214    1.010952
      3          8           0        0.805466    1.162055    0.917179
      4          6           0       -1.159486    1.207226    0.536477
      5          6           0        1.465726   -0.042380    0.534499
      6          6           0       -0.720852   -1.329866    0.293864
      7          1           0       -1.205057    1.972530    1.327121
      8          1           0       -0.455148   -2.054960    1.078189
      9          1           0       -2.555211   -0.310680    0.756004
     10          1           0        1.655238   -0.600244    1.461458
     11          1           0        0.352892   -0.363585   -1.297372
     12          6           0        2.797861    0.358671   -0.104882
     13          1           0        3.325007    1.047522    0.569983
     14          1           0        2.617210    0.886405   -1.046638
     15          8           0       -1.249621    1.501927   -0.668817
     16          8           0        3.609470   -0.766952   -0.434992
     17          1           0        3.875174   -1.196256    0.394307
     18          8           0       -1.275286   -0.230758    2.416509
     19          1           0       -1.814793   -0.952545    2.772634
     20          8           0       -1.586072   -1.955367   -0.654294
     21          1           0       -1.033567   -2.588941   -1.144047
     22          8           0        1.240744   -2.154792   -0.689693
     23          1           0        2.142721   -1.935246   -0.992366
     24          8           0        0.807441    2.970948   -0.899836
     25          1           0       -0.120367    2.646771   -1.046195
     26          1           0        1.005557    1.897812    0.263792
     27          1           0        0.727584    3.889305   -0.600394
     28          8           0       -3.621667    0.022690   -1.383499
     29          1           0       -2.921564    0.696358   -1.424121
     30          1           0       -3.103425   -0.800996   -1.396051
 ---------------------------------------------------------------------

 Alpha  occ. eigenvalues --  -19.18363 -19.17547 -19.16734 -19.15987 -19.15859
 Alpha  occ. eigenvalues --  -19.15107 -19.14194 -19.09283 -10.29234 -10.25570
 Alpha  occ. eigenvalues --  -10.25460 -10.24712 -10.24660 -10.24341  -1.06919
 Alpha  occ. eigenvalues --   -1.05432  -1.04201  -1.03332  -1.02903  -1.01971
 Alpha  occ. eigenvalues --   -1.01439  -0.95308  -0.78704  -0.75917  -0.70545
 Alpha  occ. eigenvalues --   -0.65526  -0.63116  -0.57322  -0.55869  -0.55021
 Alpha  occ. eigenvalues --   -0.54763  -0.52457  -0.51564  -0.50137  -0.48412
 Alpha  occ. eigenvalues --   -0.47771  -0.46570  -0.45190  -0.44113  -0.43473
 Alpha  occ. eigenvalues --   -0.42152  -0.41471  -0.40971  -0.39885  -0.38744
 Alpha  occ. eigenvalues --   -0.36965  -0.35926  -0.35192  -0.34291  -0.33356
 Alpha  occ. eigenvalues --   -0.32024  -0.30755  -0.29781  -0.29126  -0.27532
 Alpha  occ. eigenvalues --   -0.26425  -0.26095  -0.24931
 Alpha virt. eigenvalues --   -0.00653   0.03839   0.05802   0.06489   0.08274
 Alpha virt. eigenvalues --    0.09589   0.11726   0.12776   0.12974   0.13834
 Alpha virt. eigenvalues --    0.14846   0.15202   0.16864   0.17170   0.18660

 Mulliken charges:
               1
     1  C    0.088108
     2  C    0.034264
     3  O   -0.657335
     4  C    0.302768
     5  C    0.106223
     6  C    0.145719
     7  H    0.143660
     8  H    0.134733
     9  H    0.192513
    10  H    0.142253
    11  H    0.146449
    12  C   -0.099942
    13  H    0.153205
    14  H    0.184514
    15  O   -0.540453
    16  O   -0.616868
    17  H    0.404740
    18  O   -0.630860
    19  H    0.402975
    20  O   -0.652613
    21  H    0.415962
    22  O   -0.680099
    23  H    0.419537
    24  O   -0.812310
    25  H    0.443406
    26  H    0.458577
    27  H    0.404367
    28  O   -0.840940
    29  H    0.403300
    30  H    0.404148
 Sum of Mulliken charges =   0.00000

 Dipole moment (field-independent basis, Debye):
    X=              4.4934    Y=              0.5504    Z=              2.7472  Tot=              5.2954
 Quadrupole moment (field-independent basis, Debye-Ang):
   XX=            -95.4224   YY=            -70.5967   ZZ=            -85.7741
   XY=              1.0404   XZ=             -4.0890   YZ=             -2.1607

  Exact polarizability:   0.000   0.000   0.000   0.000   0.000   0.000
 Approx polarizability: 134.865  -1.664 135.219   8.030  -3.560 132.252

 Normal termination of Gaussian 09 at Wed Jan 25 14:07:39 2017.
