 Gaussian 09, Revision E.01,
 Gaussian 09:  ES64L-G09RevE.01 30-Nov-2015

 -------------------------------------
 # b3lyp/6-31g(d) irc=(calcfc,reverse)
 -------------------------------------

 ---------------------------------
 glo_1w_alpha_ts_boat3_B3LYP_631Gd
 ---------------------------------
 Symbolic Z-matrix:
 Charge =  0 Multiplicity = 1

 SCF Done:  E(RB3LYP) =  -839.955598093     A.U. after   14 cycles
 SCF Done:  E(RB3LYP) =  -839.956016422     A.U. after   11 cycles
 SCF Done:  E(RB3LYP) =  -839.957316014     A.U. after   11 cycles
 SCF Done:  E(RB3LYP) =  -839.959451050     A.U. after   11 cycles
 SCF Done:  E(RB3LYP) =  -839.962213928     A.U. after   12 cycles
 SCF Done:  E(RB3LYP) =  -839.965261371     A.U. after   12 cycles
 SCF Done:  E(RB3LYP) =  -839.968164746     A.U. after   12 cycles
 SCF Done:  E(RB3LYP) =  -839.970610739     A.U. after   11 cycles
 SCF Done:  E(RB3LYP) =  -839.972666817     A.U. after   11 cycles
 SCF Done:  E(RB3LYP) =  -839.974510818     A.U. after   11 cycles
 SCF Done:  E(RB3LYP) =  -839.976227050     A.U. after   10 cycles

                          Input orientation:
 ---------------------------------------------------------------------
 Center     Atomic      Atomic             Coordinates (Angstroms)
 Number     Number       Type             X           Y           Z
 ---------------------------------------------------------------------
      1          6           0       -0.484322   -0.197989    0.938085
      2          6           0        0.689021    1.457653   -0.674788
      3          8           0        1.058645   -0.974031   -0.840067
      4          6           0        1.804328    0.430909   -0.584679
      5          6           0       -0.183348   -1.253341   -0.136323
      6          6           0       -0.427470    1.246082    0.372825
      7          1           0       -0.216672    1.899998    1.231881
      8          1           0        0.228765    1.273730   -1.655770
      9          1           0       -0.049336   -2.213775    0.384462
     10          1           0       -1.496985   -0.375994    1.312057
     11          6           0       -1.277700   -1.401967   -1.206391
     12          1           0       -0.947708   -2.125483   -1.963386
     13          1           0       -1.463360   -0.443902   -1.692489
     14          8           0       -2.543499   -1.796907   -0.655475
     15          1           0       -2.432173   -2.643655   -0.194519
     16          8           0        1.243645    2.762431   -0.633671
     17          1           0        0.502788    3.373608   -0.775995
     18          8           0       -1.621123    1.639002   -0.294584
     19          1           0       -2.405389    1.355530    0.229079
     20          8           0        0.360237   -0.355590    2.062899
     21          1           0        1.247479   -0.034177    1.804385
     22          1           0        2.441031    0.441495   -1.476093
     23          8           0        2.511996    0.394075    0.574402
     24          8           0        3.001708   -1.953359    0.233690
     25          1           0        2.992828   -0.502095    0.565468
     26          1           0        2.176511   -1.832529   -0.322278
     27          1           0        3.718491   -2.174496   -0.379970
     28          8           0       -3.858319    0.315896    0.682875
     29          1           0       -4.623830    0.628726    0.177481
     30          1           0       -3.538830   -0.475760    0.196803
 ---------------------------------------------------------------------

 Alpha  occ. eigenvalues --  -19.18421 -19.17296 -19.15844 -19.15591 -19.15153
 Alpha  occ. eigenvalues --  -19.14770 -19.13014 -19.12113 -10.30512 -10.24769
 Alpha  occ. eigenvalues --  -10.24593 -10.24171 -10.23142 -10.23014  -1.07735
 Alpha  occ. eigenvalues --   -1.04944  -1.02780  -1.01422  -1.01211  -1.00938
 Alpha  occ. eigenvalues --   -0.99804  -0.99278  -0.77052  -0.76768  -0.69513
 Alpha  occ. eigenvalues --   -0.65322  -0.62758  -0.57403  -0.55751  -0.54907
 Alpha  occ. eigenvalues --   -0.53905  -0.53068  -0.51987  -0.50679  -0.48581
 Alpha  occ. eigenvalues --   -0.47169  -0.46584  -0.45212  -0.44084  -0.42619
 Alpha  occ. eigenvalues --   -0.41743  -0.40311  -0.40080  -0.39201  -0.37794
 Alpha  occ. eigenvalues --   -0.36429  -0.36173  -0.34842  -0.34133  -0.32357
 Alpha  occ. eigenvalues --   -0.31364  -0.30873  -0.29826  -0.29489  -0.28383
 Alpha  occ. eigenvalues --   -0.26509  -0.26217  -0.24329
 Alpha virt. eigenvalues --    0.03333   0.05363   0.06137   0.07458   0.09867
 Alpha virt. eigenvalues --    0.10046   0.11847   0.11946   0.14597   0.14776
 Alpha virt. eigenvalues --    0.15691   0.16606   0.17360   0.18821   0.20126

 Mulliken charges:
               1
     1  C    0.090516
     2  C    0.129484
     3  O   -0.614798
     4  C    0.288100
     5  C    0.098929
     6  C    0.085141
     7  H    0.147471
     8  H    0.142518
     9  H    0.137333
    10  H    0.148373
    11  C   -0.058796
    12  H    0.143671
    13  H    0.184861
    14  O   -0.630907
    15  H    0.407197
    16  O   -0.631514
    17  H    0.406841
    18  O   -0.695899
    19  H    0.427882
    20  O   -0.666877
    21  H    0.422944
    22  H    0.152711
    23  O   -0.618345
    24  O   -0.816411
    25  H    0.451849
    26  H    0.447707
    27  H    0.397460
    28  O   -0.810320
    29  H    0.397309
    30  H    0.435572
 Sum of Mulliken charges =  -0.00000

 Dipole moment (field-independent basis, Debye):
    X=             -1.1878    Y=             -2.6728    Z=             -3.8866  Tot=              4.8642
 Quadrupole moment (field-independent basis, Debye-Ang):
   XX=            -71.8942   YY=            -77.4736   ZZ=            -90.7262
   XY=             -3.4840   XZ=             -2.9299   YZ=              2.5244

  Exact polarizability:   0.000   0.000   0.000   0.000   0.000   0.000
 Approx polarizability: 141.221   1.990 132.007   1.834  -0.498 121.185

 Normal termination of Gaussian 09 at Sat Jan 14 00:48:36 2017.
