 Gaussian 09, Revision E.01,
 Gaussian 09:  ES64L-G09RevE.01 30-Nov-2015

 -------------------------------------
 # b3lyp/6-31g(d) irc=(calcfc,forward)
 -------------------------------------

 --------------------------------
 glo_1w_beta_ts_boat3_B3LYP_631Gd
 --------------------------------
 Symbolic Z-matrix:
 Charge =  0 Multiplicity = 1

 SCF Done:  E(RB3LYP) =  -839.997852088     A.U. after   14 cycles

 Alpha  occ. eigenvalues --  -19.18886 -19.17068 -19.17045 -19.16003 -19.15762
 Alpha  occ. eigenvalues --  -19.15687 -19.14865 -19.12392 -10.29276 -10.25190
 Alpha  occ. eigenvalues --  -10.24834 -10.24804 -10.24369 -10.22151  -1.07540
 Alpha  occ. eigenvalues --   -1.05964  -1.03452  -1.02595  -1.02304  -1.01617
 Alpha  occ. eigenvalues --   -1.00375  -0.99676  -0.79616  -0.76903  -0.68610
 Alpha  occ. eigenvalues --   -0.65293  -0.62548  -0.57893  -0.55898  -0.55602
 Alpha  occ. eigenvalues --   -0.54609  -0.53614  -0.52269  -0.51403  -0.49544
 Alpha  occ. eigenvalues --   -0.47335  -0.45796  -0.44642  -0.44144  -0.43221
 Alpha  occ. eigenvalues --   -0.41726  -0.40837  -0.39992  -0.39748  -0.38397
 Alpha  occ. eigenvalues --   -0.37871  -0.37046  -0.34722  -0.33688  -0.32751
 Alpha  occ. eigenvalues --   -0.32088  -0.31858  -0.30767  -0.29894  -0.28858
 Alpha  occ. eigenvalues --   -0.28125  -0.26185  -0.24807
 Alpha virt. eigenvalues --    0.03226   0.05343   0.06448   0.08117   0.08503
 Alpha virt. eigenvalues --    0.11863   0.12062   0.13088   0.13886   0.14666
 Alpha virt. eigenvalues --    0.15258   0.15598   0.16270   0.16792   0.18358

 Mulliken charges:
               1
     1  C    0.049170
     2  C    0.133299
     3  O   -0.544564
     4  C    0.301751
     5  C    0.121246
     6  C    0.083944
     7  H    0.150144
     8  H    0.151299
     9  H    0.149800
    10  H    0.157206
    11  H    0.139174
    12  C   -0.037809
    13  H    0.143122
    14  H    0.130074
    15  O   -0.648621
    16  O   -0.643377
    17  H    0.412241
    18  O   -0.641362
    19  H    0.402278
    20  O   -0.656350
    21  H    0.416114
    22  O   -0.682953
    23  H    0.437909
    24  O   -0.802120
    25  H    0.432507
    26  H    0.426236
    27  H    0.399712
    28  O   -0.804949
    29  H    0.419109
    30  H    0.405773
 Sum of Mulliken charges =  -0.00000

 Dipole moment (field-independent basis, Debye):
    X=             -1.2487    Y=              3.1894    Z=             -0.2764  Tot=              3.4362
 Quadrupole moment (field-independent basis, Debye-Ang):
   XX=            -72.7924   YY=            -97.0827   ZZ=            -80.8475
   XY=              2.5572   XZ=              3.7107   YZ=              3.1556

  Exact polarizability:   0.000   0.000   0.000   0.000   0.000   0.000
 Approx polarizability: 134.225   3.998 127.892   0.254  -0.862 123.537

                          Input orientation:
 ---------------------------------------------------------------------
 Center     Atomic      Atomic             Coordinates (Angstroms)
 Number     Number       Type             X           Y           Z
 ---------------------------------------------------------------------
      1          6           0       -0.769559   -0.576938    0.143908
      2          6           0       -0.278883    1.849410   -0.073769
      3          8           0        1.448413    0.280161    0.781020
      4          6           0        1.170397    1.326112   -0.165218
      5          6           0        0.606317   -0.897018    0.747207
      6          6           0       -1.171536    0.821493    0.612163
      7          1           0        1.848539    2.128456    0.148057
      8          1           0       -1.024983    0.898994    1.697410
      9          1           0       -0.637797    1.988346   -1.103792
     10          1           0        0.449125   -1.170263    1.798090
     11          1           0       -0.695001   -0.572846   -0.952885
     12          6           0        1.282824   -2.086701    0.053928
     13          1           0        2.309010   -2.192946    0.423445
     14          1           0        1.340085   -1.897023   -1.030279
     15          8           0        1.404536    0.912929   -1.478145
     16          8           0        0.601572   -3.292968    0.351894
     17          1           0       -0.351668   -3.086332    0.346097
     18          8           0       -0.258656    3.086283    0.623553
     19          1           0       -1.180043    3.387378    0.678901
     20          8           0       -2.541304    1.147695    0.302438
     21          1           0       -3.089662    0.666034    0.944332
     22          8           0       -1.691163   -1.581994    0.559220
     23          1           0       -2.406975   -1.586864   -0.119089
     24          8           0        3.899664    0.059435   -0.597534
     25          1           0        2.351998    0.647992   -1.510497
     26          1           0        3.321359   -0.010127    0.188473
     27          1           0        4.598789    0.682231   -0.347198
     28          8           0       -3.514178   -0.873482   -1.388471
     29          1           0       -3.265124    0.035060   -1.118347
     30          1           0       -3.230554   -0.956557   -2.311470
 ---------------------------------------------------------------------

 Normal termination of Gaussian 09 at Sat Jan 14 00:21:17 2017.
