 Gaussian 09, Revision D.01,
 Gaussian 09:  ES64L-G09RevD.01 24-Apr-2013

 --------------------------------------------------
 # b3lyp/6-31g(d) irc=(calcfc,reverse,maxpoints=20)
 --------------------------------------------------

 --------------------------------
 glo_1w_beta_ts_boat3_B3LYP_631Gd
 --------------------------------
 Symbolic Z-matrix:
 Charge =  0 Multiplicity = 1

 SCF Done:  E(RB3LYP) =  -839.950236740     A.U. after   14 cycles
 SCF Done:  E(RB3LYP) =  -839.950673746     A.U. after   11 cycles
 SCF Done:  E(RB3LYP) =  -839.952016414     A.U. after   11 cycles
 SCF Done:  E(RB3LYP) =  -839.954176621     A.U. after   11 cycles
 SCF Done:  E(RB3LYP) =  -839.956889534     A.U. after   12 cycles
 SCF Done:  E(RB3LYP) =  -839.959754330     A.U. after   12 cycles
 SCF Done:  E(RB3LYP) =  -839.962352200     A.U. after   12 cycles
 SCF Done:  E(RB3LYP) =  -839.964522443     A.U. after   11 cycles
 SCF Done:  E(RB3LYP) =  -839.966422761     A.U. after   11 cycles
 SCF Done:  E(RB3LYP) =  -839.968179087     A.U. after   11 cycles
 SCF Done:  E(RB3LYP) =  -839.974339735     A.U. after   10 cycles
 SCF Done:  E(RB3LYP) =  -839.974360104     A.U. after    9 cycles
 SCF Done:  E(RB3LYP) =  -839.975703323     A.U. after   10 cycles
 SCF Done:  E(RB3LYP) =  -839.976975668     A.U. after   10 cycles
 SCF Done:  E(RB3LYP) =  -839.978139861     A.U. after   10 cycles
 SCF Done:  E(RB3LYP) =  -839.979212163     A.U. after   10 cycles
 SCF Done:  E(RB3LYP) =  -839.979241079     A.U. after    9 cycles
 SCF Done:  E(RB3LYP) =  -839.980239335     A.U. after   10 cycles
 SCF Done:  E(RB3LYP) =  -839.981174774     A.U. after   10 cycles
 SCF Done:  E(RB3LYP) =  -839.982019841     A.U. after   10 cycles

                          Input orientation:
 ---------------------------------------------------------------------
 Center     Atomic      Atomic             Coordinates (Angstroms)
 Number     Number       Type             X           Y           Z
 ---------------------------------------------------------------------
      1          6           0        0.585774   -0.938759   -0.385873
      2          6           0       -1.449898   -0.167210    1.002054
      3          8           0        0.642799    1.155337    0.852203
      4          6           0       -0.846208    1.176488    0.622742
      5          6           0        1.405756   -0.034308    0.533703
      6          6           0       -0.724445   -1.339279    0.293030
      7          1           0       -1.144556    1.947453    1.341090
      8          1           0       -0.458242   -2.065584    1.076510
      9          1           0       -2.504513   -0.166414    0.700131
     10          1           0        1.601371   -0.568002    1.476190
     11          1           0        0.348771   -0.380835   -1.303016
     12          6           0        2.760823    0.380365   -0.094923
     13          1           0        3.290842    1.066650    0.579725
     14          1           0        2.589458    0.901482   -1.040790
     15          8           0       -1.207099    1.492407   -0.679025
     16          8           0        3.584657   -0.751233   -0.420513
     17          1           0        3.854348   -1.177192    0.409661
     18          8           0       -1.286154   -0.241115    2.416082
     19          1           0       -1.834431   -0.972800    2.738036
     20          8           0       -1.592326   -1.955554   -0.654400
     21          1           0       -1.044342   -2.592551   -1.144401
     22          8           0        1.243650   -2.161598   -0.689978
     23          1           0        2.146202   -1.935988   -0.985460
     24          8           0        0.809087    2.969733   -0.882879
     25          1           0       -0.638575    2.257405   -0.964008
     26          1           0        1.023673    2.417119   -0.093716
     27          1           0        0.816431    3.890092   -0.578448
     28          8           0       -3.621489    0.024250   -1.383988
     29          1           0       -2.936669    0.714308   -1.400890
     30          1           0       -3.086444   -0.788721   -1.389133
 ---------------------------------------------------------------------

 Alpha  occ. eigenvalues --  -19.18776 -19.18178 -19.16256 -19.15889 -19.15641
 Alpha  occ. eigenvalues --  -19.15411 -19.15097 -19.08998 -10.30012 -10.25957
 Alpha  occ. eigenvalues --  -10.25919 -10.24438 -10.24419 -10.24336  -1.07739
 Alpha  occ. eigenvalues --   -1.05562  -1.04146  -1.02918  -1.01937  -1.01642
 Alpha  occ. eigenvalues --   -1.01072  -0.95022  -0.78866  -0.77502  -0.70829
 Alpha  occ. eigenvalues --   -0.65136  -0.64244  -0.57469  -0.56633  -0.55789
 Alpha  occ. eigenvalues --   -0.55386  -0.52683  -0.51535  -0.49628  -0.48846
 Alpha  occ. eigenvalues --   -0.47442  -0.47138  -0.45581  -0.44182  -0.43278
 Alpha  occ. eigenvalues --   -0.41999  -0.41848  -0.41084  -0.38983  -0.38608
 Alpha  occ. eigenvalues --   -0.36773  -0.36451  -0.34951  -0.33662  -0.33137
 Alpha  occ. eigenvalues --   -0.31641  -0.30566  -0.29658  -0.29013  -0.28566
 Alpha  occ. eigenvalues --   -0.27137  -0.27056  -0.24702
 Alpha virt. eigenvalues --    0.03125   0.05861   0.06429   0.08176   0.08830
 Alpha virt. eigenvalues --    0.10450   0.11854   0.12321   0.13241   0.14046
 Alpha virt. eigenvalues --    0.14774   0.15434   0.16698   0.17293   0.18621

 Mulliken charges:
               1
     1  C    0.081225
     2  C    0.057054
     3  O   -0.587557
     4  C    0.336271
     5  C    0.124074
     6  C    0.136945
     7  H    0.154037
     8  H    0.133394
     9  H    0.186955
    10  H    0.139005
    11  H    0.150528
    12  C   -0.090203
    13  H    0.150737
    14  H    0.184629
    15  O   -0.649354
    16  O   -0.618246
    17  H    0.406229
    18  O   -0.636586
    19  H    0.401105
    20  O   -0.650792
    21  H    0.415740
    22  O   -0.679596
    23  H    0.419539
    24  O   -0.818670
    25  H    0.442429
    26  H    0.442232
    27  H    0.398693
    28  O   -0.839887
    29  H    0.405125
    30  H    0.404945
 Sum of Mulliken charges =   0.00000

 Dipole moment (field-independent basis, Debye):
    X=              5.0660    Y=              0.7434    Z=              2.8330  Tot=              5.8517
 Quadrupole moment (field-independent basis, Debye-Ang):
   XX=            -95.6951   YY=            -70.5542   ZZ=            -86.1506
   XY=              1.6931   XZ=             -3.3619   YZ=             -1.4751

  Exact polarizability:   0.000   0.000   0.000   0.000   0.000   0.000
 Approx polarizability: 131.926  -2.479 132.769   5.365  -0.980 123.293

 Normal termination of Gaussian 09 at Wed Jan 25 14:21:02 2017.
