 Gaussian 09, Revision E.01,
 Gaussian 09:  ES64L-G09RevE.01 30-Nov-2015

 -------------------------
 # b3lyp/6-31g(d) opt freq
 -------------------------

 ----------------------------------
 glo_2w_beta_ircr_boat5_B3LYP_631Gd
 ----------------------------------
 Symbolic Z-matrix:
 Charge =  0 Multiplicity = 1

 SCF Done:  E(RB3LYP) =  -839.963906506     A.U. after   14 cycles
 SCF Done:  E(RB3LYP) =  -839.959624966     A.U. after   15 cycles
 SCF Done:  E(RB3LYP) =  -839.967830155     A.U. after   12 cycles
 SCF Done:  E(RB3LYP) =  -839.970459377     A.U. after   13 cycles
 SCF Done:  E(RB3LYP) =  -839.975680594     A.U. after   12 cycles
 SCF Done:  E(RB3LYP) =  -839.976698435     A.U. after   13 cycles
 SCF Done:  E(RB3LYP) =  -839.980634217     A.U. after   13 cycles
 SCF Done:  E(RB3LYP) =  -839.982258329     A.U. after   12 cycles
 SCF Done:  E(RB3LYP) =  -839.982676383     A.U. after   12 cycles
 SCF Done:  E(RB3LYP) =  -839.983062900     A.U. after   12 cycles
 SCF Done:  E(RB3LYP) =  -839.984074162     A.U. after    8 cycles
 SCF Done:  E(RB3LYP) =  -839.984079773     A.U. after    9 cycles
 SCF Done:  E(RB3LYP) =  -839.984082684     A.U. after    9 cycles
 SCF Done:  E(RB3LYP) =  -839.984084402     A.U. after    8 cycles
 SCF Done:  E(RB3LYP) =  -839.984084975     A.U. after    8 cycles
 SCF Done:  E(RB3LYP) =  -839.984085228     A.U. after    7 cycles
 SCF Done:  E(RB3LYP) =  -839.984085447     A.U. after    7 cycles
 SCF Done:  E(RB3LYP) =  -839.984085743     A.U. after    7 cycles
 SCF Done:  E(RB3LYP) =  -839.984085929     A.U. after    7 cycles
 Optimization completed.
    -- Stationary point found.
 Normal termination of Gaussian 09 at Sun Jan 15 21:55:16 2017.

 --------------------------------------------------------------------
 #N Geom=AllCheck Guess=TCheck SCRF=Check GenChk RB3LYP/6-31G(d) Freq
 --------------------------------------------------------------------

 Structure from the checkpoint file:  "/scratch/10464849.yak.local/Gau-20236.chk"
 ----------------------------------
 glo_2w_beta_ircr_boat5_B3LYP_631Gd
 ----------------------------------
 Charge =  0 Multiplicity = 1

                         Standard orientation:
 ---------------------------------------------------------------------
 Center     Atomic      Atomic             Coordinates (Angstroms)
 Number     Number       Type             X           Y           Z
 ---------------------------------------------------------------------
      1          8           0        0.179570    1.038399   -0.816890
      2          6           0       -1.334033   -0.147134    0.735468
      3          6           0        0.334596   -1.968371   -0.166445
      4          6           0       -0.252075   -1.216493    1.046938
      5          6           0        1.332988   -1.179100   -1.022744
      6          6           0       -1.165975    0.697255   -0.552332
      7          1           0       -0.781218   -1.977838    1.636094
      8          1           0       -1.486102    0.072483   -1.395423
      9          1           0       -1.345120    0.526845    1.603047
     10          1           0        0.893588   -2.826651    0.233351
     11          6           0       -2.077118    1.936661   -0.528451
     12          1           0       -1.856171    2.538840   -1.415207
     13          1           0       -1.829191    2.549993    0.357242
     14          1           0        0.969192   -0.882208   -2.021494
     15          8           0        2.486855   -1.016789   -0.669690
     16          8           0       -3.455414    1.609149   -0.573641
     17          1           0       -3.586660    0.867289    0.044115
     18          8           0       -0.797578   -2.390205   -0.926536
     19          1           0       -0.520084   -3.055539   -1.574091
     20          8           0        0.846106   -0.710050    1.809955
     21          1           0        0.526861   -0.565484    2.714555
     22          8           0       -2.629310   -0.767618    0.738165
     23          1           0       -2.621358   -1.403414    0.000147
     24          8           0        3.862596    1.438537   -0.533386
     25          1           0        2.532347    1.953522    0.608058
     26          1           0        4.636061    1.154764   -0.022996
     27          1           0        3.461693    0.598984   -0.838993
     28          8           0        1.719651    1.942098    1.169537
     29          1           0        0.597594    1.545104   -0.065434
     30          1           0        1.678449    1.018233    1.482327
 ---------------------------------------------------------------------

 SCF Done:  E(RB3LYP) =  -839.984085929     A.U. after    1 cycles

 The electronic state is 1-A.
 Alpha  occ. eigenvalues --  -19.19432 -19.18899 -19.16842 -19.16689 -19.14727
 Alpha  occ. eigenvalues --  -19.13579 -19.12483 -19.12108 -10.29621 -10.27429
 Alpha  occ. eigenvalues --  -10.27148 -10.25224 -10.23323 -10.21587  -1.07500
 Alpha  occ. eigenvalues --   -1.05881  -1.05687  -1.03985  -1.01221  -1.00550
 Alpha  occ. eigenvalues --   -0.99386  -0.97904  -0.79366  -0.74665  -0.69845
 Alpha  occ. eigenvalues --   -0.65236  -0.61345  -0.59439  -0.57685  -0.54510
 Alpha  occ. eigenvalues --   -0.52748  -0.51551  -0.50873  -0.50180  -0.49351
 Alpha  occ. eigenvalues --   -0.47410  -0.46566  -0.45859  -0.43485  -0.42675
 Alpha  occ. eigenvalues --   -0.41187  -0.40616  -0.40163  -0.39167  -0.38763
 Alpha  occ. eigenvalues --   -0.37553  -0.36665  -0.36501  -0.34465  -0.32974
 Alpha  occ. eigenvalues --   -0.32111  -0.31216  -0.29959  -0.29540  -0.28063
 Alpha  occ. eigenvalues --   -0.26768  -0.26331  -0.23914
 Alpha virt. eigenvalues --   -0.04289   0.02616   0.04508   0.07360   0.08369
 Alpha virt. eigenvalues --    0.09923   0.11360   0.11559   0.12797   0.13987
 Alpha virt. eigenvalues --    0.15217   0.15881   0.17340   0.18564   0.18706

 Mulliken charges:
               1
     1  O   -0.677571
     2  C    0.075313
     3  C    0.062034
     4  C    0.088540
     5  C    0.268637
     6  C    0.105102
     7  H    0.156511
     8  H    0.136104
     9  H    0.141380
    10  H    0.163759
    11  C   -0.038912
    12  H    0.152719
    13  H    0.117102
    14  H    0.147772
    15  O   -0.435017
    16  O   -0.643641
    17  H    0.408502
    18  O   -0.645165
    19  H    0.412930
    20  O   -0.623134
    21  H    0.414432
    22  O   -0.644411
    23  H    0.417545
    24  O   -0.800999
    25  H    0.429159
    26  H    0.395530
    27  H    0.431333
    28  O   -0.849101
    29  H    0.426464
    30  H    0.407081
 Sum of Mulliken charges =  -0.00000

 Dipole moment (field-independent basis, Debye):
    X=              1.6178    Y=             -6.2482    Z=              1.2531  Tot=              6.5748
 Quadrupole moment (field-independent basis, Debye-Ang):
   XX=            -92.9308   YY=            -83.2242   ZZ=            -76.4284
   XY=              1.9237   XZ=              0.8610   YZ=              5.8158

  Exact polarizability: 110.352   0.373  95.006   2.714   1.156  85.052
 Approx polarizability: 150.994   5.103 126.330   6.702   2.940 122.896

                      1                      2                      3
                      A                      A                      A
 Frequencies --     45.7010                53.2304                64.1373
 Red. masses --      5.6438                 7.4429                 6.6309
 Frc consts  --      0.0069                 0.0124                 0.0161
 IR Inten    --      2.7806                 0.5197                 1.6774

                      4                      5                      6
                      A                      A                      A
 Frequencies --     74.0770                92.8224               131.9126
 Red. masses --      6.2039                 7.3043                 6.7428
 Frc consts  --      0.0201                 0.0371                 0.0691
 IR Inten    --      1.4376                 0.9987                 1.0527

                      7                      8                      9
                      A                      A                      A
 Frequencies --    155.7932               164.3394               171.4779
 Red. masses --      5.0753                 4.6504                 4.2910
 Frc consts  --      0.0726                 0.0740                 0.0743
 IR Inten    --     11.7334                 2.1236                 2.4238

                     10                     11                     12
                      A                      A                      A
 Frequencies --    176.2812               204.6847               228.3028
 Red. masses --      6.1047                 4.3156                 1.2642
 Frc consts  --      0.1118                 0.1065                 0.0388
 IR Inten    --      5.4931                17.6650                76.0308

                     13                     14                     15
                      A                      A                      A
 Frequencies --    240.6125               252.8606               270.5133
 Red. masses --      3.2180                 4.3464                 3.0495
 Frc consts  --      0.1098                 0.1637                 0.1315
 IR Inten    --     56.7980                 6.3886                52.7862

                     16                     17                     18
                      A                      A                      A
 Frequencies --    278.2502               299.9262               335.1510
 Red. masses --      1.2835                 1.4483                 1.6468
 Frc consts  --      0.0585                 0.0768                 0.1090
 IR Inten    --     66.5538               103.0110                26.9981

                     19                     20                     21
                      A                      A                      A
 Frequencies --    345.3972               352.9594               359.9159
 Red. masses --      2.8215                 3.8687                 3.7943
 Frc consts  --      0.1983                 0.2840                 0.2896
 IR Inten    --     41.2695                15.7307                30.6762

                     22                     23                     24
                      A                      A                      A
 Frequencies --    370.8271               406.2907               418.5438
 Red. masses --      2.1763                 2.9284                 5.1237
 Frc consts  --      0.1763                 0.2848                 0.5288
 IR Inten    --     32.2152                 4.5874                 4.2180

                     25                     26                     27
                      A                      A                      A
 Frequencies --    453.2298               485.8145               514.0838
 Red. masses --      1.3686                 2.7025                 3.9073
 Frc consts  --      0.1656                 0.3758                 0.6084
 IR Inten    --    223.9045                22.9998                10.8910

                     28                     29                     30
                      A                      A                      A
 Frequencies --    537.5526               553.2496               579.0374
 Red. masses --      1.1467                 4.4853                 5.6491
 Frc consts  --      0.1952                 0.8089                 1.1159
 IR Inten    --     21.0190                 4.8202                 5.4363

                     31                     32                     33
                      A                      A                      A
 Frequencies --    615.4087               620.9277               673.2459
 Red. masses --      1.1131                 1.1204                 1.1386
 Frc consts  --      0.2484                 0.2545                 0.3041
 IR Inten    --    122.0710               104.9125               265.4489

                     34                     35                     36
                      A                      A                      A
 Frequencies --    708.2013               810.3633               896.9378
 Red. masses --      2.7195                 2.7439                 1.5300
 Frc consts  --      0.8036                 1.0617                 0.7252
 IR Inten    --     27.2080                 5.3875                62.8272

                     37                     38                     39
                      A                      A                      A
 Frequencies --    913.7268               970.7886              1011.1973
 Red. masses --      1.3121                 1.7645                 1.1310
 Frc consts  --      0.6454                 0.9798                 0.6814
 IR Inten    --    123.6500                36.8862               143.9277

                     40                     41                     42
                      A                      A                      A
 Frequencies --   1020.5630              1053.3404              1074.1732
 Red. masses --      2.1951                 3.9990                 3.8954
 Frc consts  --      1.3470                 2.6142                 2.6482
 IR Inten    --     10.1581                48.6552                82.6413

                     43                     44                     45
                      A                      A                      A
 Frequencies --   1087.3471              1088.9567              1095.5299
 Red. masses --      2.7410                 5.8446                 4.4276
 Frc consts  --      1.9094                 4.0835                 3.1309
 IR Inten    --     18.9117                16.8735               187.4207

                     46                     47                     48
                      A                      A                      A
 Frequencies --   1104.5841              1142.3515              1148.9634
 Red. masses --      3.3108                 2.8185                 3.3759
 Frc consts  --      2.3800                 2.1670                 2.6257
 IR Inten    --     38.0549                17.0497                10.1616

                     49                     50                     51
                      A                      A                      A
 Frequencies --   1209.6964              1243.6100              1261.4614
 Red. masses --      1.1272                 1.1447                 1.1753
 Frc consts  --      0.9719                 1.0431                 1.1019
 IR Inten    --     12.5019               117.4740                 7.9488

                     52                     53                     54
                      A                      A                      A
 Frequencies --   1268.9769              1327.4433              1337.6230
 Red. masses --      1.1923                 1.3664                 1.2824
 Frc consts  --      1.1312                 1.4186                 1.3518
 IR Inten    --     13.4037                13.7901                 3.0416

                     55                     56                     57
                      A                      A                      A
 Frequencies --   1353.9195              1371.9198              1395.1851
 Red. masses --      1.2197                 1.2253                 1.3866
 Frc consts  --      1.3173                 1.3588                 1.5903
 IR Inten    --      3.1197                 3.7198                13.5286

                     58                     59                     60
                      A                      A                      A
 Frequencies --   1405.7937              1412.0871              1431.5675
 Red. masses --      1.2746                 1.2540                 1.3342
 Frc consts  --      1.4841                 1.4732                 1.6110
 IR Inten    --      6.7351                 5.9801                 3.4127

                     61                     62                     63
                      A                      A                      A
 Frequencies --   1445.7517              1463.7691              1480.9647
 Red. masses --      1.2531                 1.4612                 1.2273
 Frc consts  --      1.5432                 1.8446                 1.5859
 IR Inten    --     19.1022                41.3143               130.7153

                     64                     65                     66
                      A                      A                      A
 Frequencies --   1496.4630              1545.2521              1730.1789
 Red. masses --      1.1505                 1.0905                 1.0797
 Frc consts  --      1.5179                 1.5341                 1.9042
 IR Inten    --     63.3808                 0.4957                82.9382

                     67                     68                     69
                      A                      A                      A
 Frequencies --   1757.0913              1794.2614              2965.7631
 Red. masses --      1.1716                 5.4150                 1.0732
 Frc consts  --      2.1312                10.2711                 5.5616
 IR Inten    --     40.2887               243.9177                51.6228

                     70                     71                     72
                      A                      A                      A
 Frequencies --   3017.0422              3027.6853              3038.7565
 Red. masses --      1.0883                 1.0842                 1.0844
 Frc consts  --      5.8369                 5.8557                 5.8997
 IR Inten    --     49.5451                20.3809                24.1581

                     73                     74                     75
                      A                      A                      A
 Frequencies --   3043.5001              3064.5471              3106.7034
 Red. masses --      1.0860                 1.0857                 1.0915
 Frc consts  --      5.9270                 6.0075                 6.2071
 IR Inten    --     25.1971                70.1902                35.9420

                     76                     77                     78
                      A                      A                      A
 Frequencies --   3231.5580              3472.0374              3610.3892
 Red. masses --      1.0711                 1.0599                 1.0543
 Frc consts  --      6.5902                 7.5284                 8.0969
 IR Inten    --    710.0632               347.7629               311.5057

                     79                     80                     81
                      A                      A                      A
 Frequencies --   3670.0285              3676.1260              3701.3597
 Red. masses --      1.0659                 1.0680                 1.0655
 Frc consts  --      8.4587                 8.5033                 8.6004
 IR Inten    --     60.7554               366.1068                41.6086

                     82                     83                     84
                      A                      A                      A
 Frequencies --   3749.6255              3763.6389              3802.2894
 Red. masses --      1.0665                 1.0669                 1.0722
 Frc consts  --      8.8343                 8.9045                 9.1334
 IR Inten    --     36.1242                39.9339                92.9243

 - Thermochemistry -
 -------------------
 Temperature   298.150 Kelvin.  Pressure   1.00000 Atm.
 Atom     1 has atomic number  8 and mass  15.99491

 Molecular mass:   216.08452 amu.
 Principal axes and moments of inertia in atomic units:
                           1         2         3
     Eigenvalues --  2313.195673889.891474841.07220
           X            0.99994   0.01093   0.00275
           Y           -0.01094   0.99993   0.00506
           Z           -0.00270  -0.00509   0.99998
 This molecule is an asymmetric top.
 Rotational symmetry number  1.
 Warning -- assumption of classical behavior for rotation
           may cause significant error
 Rotational temperatures (Kelvin)      0.03744     0.02227     0.01789
 Rotational constants (GHZ):           0.78019     0.46396     0.37280
 Zero-point vibrational energy     647943.2 (Joules/Mol)
                                  154.86215 (Kcal/Mol)
 Warning -- explicit consideration of  31 degrees of freedom as
           vibrations may cause significant error
 Vibrational temperatures:     65.75    76.59    92.28   106.58   133.55
          (Kelvin)            189.79   224.15   236.45   246.72   253.63
                              294.50   328.48   346.19   363.81   389.21
                              400.34   431.53   482.21   496.95   507.83
                              517.84   533.54   584.56   602.19   652.10
                              698.98   739.65   773.42   796.00   833.10
                              885.43   893.38   968.65  1018.94  1165.93
                             1290.49  1314.65  1396.75  1454.89  1468.36
                             1515.52  1545.49  1564.45  1566.76  1576.22
                             1589.25  1643.59  1653.10  1740.48  1789.28
                             1814.96  1825.77  1909.89  1924.54  1947.99
                             1973.88  2007.36  2022.62  2031.68  2059.70
                             2080.11  2106.03  2130.78  2153.07  2223.27
                             2489.34  2528.06  2581.54  4267.07  4340.85
                             4356.16  4372.09  4378.91  4409.19  4469.85
                             4649.49  4995.48  5194.54  5280.35  5289.12
                             5325.42  5394.87  5415.03  5470.64

 Zero-point correction=                           0.246789 (Hartree/Particle)
 Thermal correction to Energy=                    0.264979
 Thermal correction to Enthalpy=                  0.265923
 Thermal correction to Gibbs Free Energy=         0.201743
 Sum of electronic and zero-point Energies=           -839.737297
 Sum of electronic and thermal Energies=              -839.719107
 Sum of electronic and thermal Enthalpies=            -839.718163
 Sum of electronic and thermal Free Energies=         -839.782343

                     E (Thermal)             CV                S
                      KCal/Mol        Cal/Mol-Kelvin    Cal/Mol-Kelvin
 Total                  166.277             66.299            135.078
 Electronic               0.000              0.000              0.000
 Translational            0.889              2.981             42.015
 Rotational               0.889              2.981             32.144
 Vibrational            164.499             60.337             60.919
 Vibration     1          0.595              1.979              4.995
 Vibration     2          0.596              1.976              4.694
 Vibration     3          0.597              1.971              4.326
 Vibration     4          0.599              1.966              4.042
 Vibration     5          0.602              1.954              3.600
 Vibration     6          0.612              1.921              2.918
 Vibration     7          0.620              1.896              2.600
 Vibration     8          0.623              1.886              2.499
 Vibration     9          0.626              1.878              2.419
 Vibration    10          0.628              1.872              2.367
 Vibration    11          0.640              1.833              2.091
 Vibration    12          0.651              1.798              1.892
 Vibration    13          0.658              1.778              1.798
 Vibration    14          0.664              1.758              1.711
 Vibration    15          0.674              1.728              1.593
 Vibration    16          0.679              1.714              1.544
 Vibration    17          0.692              1.674              1.417
 Vibration    18          0.716              1.605              1.235
 Vibration    19          0.724              1.585              1.187
 Vibration    20          0.729              1.569              1.153
 Vibration    21          0.734              1.555              1.122
 Vibration    22          0.743              1.532              1.076
 Vibration    23          0.771              1.457              0.940
 Vibration    24          0.781              1.430              0.897
 Vibration    25          0.812              1.354              0.786
 Vibration    26          0.842              1.282              0.695
 Vibration    27          0.869              1.219              0.624
 Vibration    28          0.893              1.167              0.571
 Vibration    29          0.909              1.133              0.537
 Vibration    30          0.936              1.077              0.487
 Vibration    31          0.975              0.999              0.424

 Normal termination of Gaussian 09 at Sun Jan 15 22:27:24 2017.
