 Gaussian 09, Revision E.01,
 Gaussian 09:  ES64L-G09RevE.01 30-Nov-2015

 -------------------------
 # b3lyp/6-31g(d) opt freq
 -------------------------

 -----------------------------------
 glo_1w_alpha_ircr_boat5_B3LYP_631Gd
 -----------------------------------
 Symbolic Z-matrix:
 Charge =  0 Multiplicity = 1

 SCF Done:  E(RB3LYP) =  -839.912021800     A.U. after   15 cycles
 SCF Done:  E(RB3LYP) =  -839.906024930     A.U. after   13 cycles
 SCF Done:  E(RB3LYP) =  -839.927370801     A.U. after   11 cycles
 SCF Done:  E(RB3LYP) =  -839.938149678     A.U. after   11 cycles
 SCF Done:  E(RB3LYP) =  -839.953312414     A.U. after   12 cycles
 SCF Done:  E(RB3LYP) =  -839.955043597     A.U. after   12 cycles
 SCF Done:  E(RB3LYP) =  -839.966205557     A.U. after   11 cycles
 SCF Done:  E(RB3LYP) =  -839.965731625     A.U. after   12 cycles
 SCF Done:  E(RB3LYP) =  -839.967861315     A.U. after    9 cycles
 SCF Done:  E(RB3LYP) =  -839.969494291     A.U. after   12 cycles
 SCF Done:  E(RB3LYP) =  -839.980598117     A.U. after    7 cycles
 SCF Done:  E(RB3LYP) =  -839.980598988     A.U. after    7 cycles
 SCF Done:  E(RB3LYP) =  -839.980599860     A.U. after    7 cycles
 SCF Done:  E(RB3LYP) =  -839.980601608     A.U. after    7 cycles
 SCF Done:  E(RB3LYP) =  -839.980603304     A.U. after    7 cycles
 SCF Done:  E(RB3LYP) =  -839.980604125     A.U. after    7 cycles
 SCF Done:  E(RB3LYP) =  -839.980604730     A.U. after    7 cycles
 SCF Done:  E(RB3LYP) =  -839.980604791     A.U. after    6 cycles
 SCF Done:  E(RB3LYP) =  -839.980604749     A.U. after    7 cycles
 Optimization completed.
    -- Stationary point found.
 Normal termination of Gaussian 09 at Mon Jan 16 00:24:40 2017.

 --------------------------------------------------------------------
 #N Geom=AllCheck Guess=TCheck SCRF=Check GenChk RB3LYP/6-31G(d) Freq
 --------------------------------------------------------------------

 Structure from the checkpoint file:  "/scratch/10464848.yak.local/Gau-21678.chk"
 -----------------------------------
 glo_1w_alpha_ircr_boat5_B3LYP_631Gd
 -----------------------------------
 Charge =  0 Multiplicity = 1

                         Standard orientation:
 ---------------------------------------------------------------------
 Center     Atomic      Atomic             Coordinates (Angstroms)
 Number     Number       Type             X           Y           Z
 ---------------------------------------------------------------------
      1          8           0       -1.142947   -0.096313   -1.262893
      2          6           0       -0.575636    0.726774    1.008669
      3          6           0        1.034135   -0.794021   -0.339793
      4          6           0        0.714583   -0.140171    1.019612
      5          6           0       -0.258175   -1.195891   -1.046377
      6          6           0       -1.060092    1.052962   -0.405651
      7          1           0        0.555514   -0.938289    1.752635
      8          1           0       -2.091907    1.426207   -0.330064
      9          1           0       -0.342007    1.679931    1.496484
     10          1           0        1.613583   -0.097597   -0.950485
     11          6           0       -0.226225    2.171621   -1.062896
     12          1           0       -0.483022    2.215995   -2.129700
     13          1           0        0.845281    1.973110   -0.981782
     14          8           0       -0.441489    3.413989   -0.401767
     15          1           0       -1.295279    3.765978   -0.697411
     16          8           0        1.864232   -1.935027   -0.181747
     17          1           0        1.283277   -2.649104    0.136695
     18          8           0        1.856998    0.651232    1.363771
     19          1           0        1.840230    0.823823    2.317724
     20          8           0       -1.603768    0.042927    1.760235
     21          1           0       -2.157120    0.719203    2.180706
     22          1           0       -0.049136   -1.578972   -2.053564
     23          8           0       -0.812864   -2.202607   -0.236311
     24          1           0       -1.795125   -2.216479   -0.330921
     25          8           0       -3.415386   -1.467855    0.000930
     26          1           0       -2.927729   -1.016737    0.721576
     27          1           0       -3.276627   -0.869852   -0.752558
     28          8           0        4.088357   -0.088169   -0.451096
     29          1           0        3.590074    0.296835    0.289857
     30          1           0        3.773388   -1.007118   -0.439551
 ---------------------------------------------------------------------

 SCF Done:  E(RB3LYP) =  -839.980604749     A.U. after    1 cycles

 The electronic state is 1-A.
 Alpha  occ. eigenvalues --  -19.18839 -19.17891 -19.17553 -19.16855 -19.15708
 Alpha  occ. eigenvalues --  -19.15200 -19.14590 -19.09575 -10.29389 -10.26530
 Alpha  occ. eigenvalues --  -10.26331 -10.25699 -10.24863 -10.24515  -1.08224
 Alpha  occ. eigenvalues --   -1.05492  -1.04689  -1.03966  -1.02901  -1.01314
 Alpha  occ. eigenvalues --   -0.99958  -0.95588  -0.80236  -0.77452  -0.70620
 Alpha  occ. eigenvalues --   -0.66504  -0.64678  -0.58968  -0.57157  -0.54302
 Alpha  occ. eigenvalues --   -0.53199  -0.53120  -0.52112  -0.51495  -0.49402
 Alpha  occ. eigenvalues --   -0.48163  -0.46865  -0.45283  -0.45111  -0.43418
 Alpha  occ. eigenvalues --   -0.42322  -0.41773  -0.40341  -0.38680  -0.38453
 Alpha  occ. eigenvalues --   -0.37103  -0.36786  -0.34984  -0.34525  -0.32991
 Alpha  occ. eigenvalues --   -0.32184  -0.31254  -0.30787  -0.29080  -0.28670
 Alpha  occ. eigenvalues --   -0.27336  -0.26751  -0.25382
 Alpha virt. eigenvalues --    0.02992   0.04401   0.05171   0.06829   0.08702
 Alpha virt. eigenvalues --    0.09742   0.11189   0.11708   0.13602   0.14043
 Alpha virt. eigenvalues --    0.14455   0.15273   0.16307   0.17228   0.17833

 Mulliken charges:
               1
     1  O   -0.533126
     2  C    0.076629
     3  C    0.073600
     4  C    0.114794
     5  C    0.327982
     6  C    0.111064
     7  H    0.162265
     8  H    0.110556
     9  H    0.159630
    10  H    0.175020
    11  C   -0.081490
    12  H    0.149783
    13  H    0.186266
    14  O   -0.610216
    15  H    0.394615
    16  O   -0.651576
    17  H    0.416221
    18  O   -0.634476
    19  H    0.404213
    20  O   -0.637491
    21  H    0.406303
    22  H    0.143954
    23  O   -0.678324
    24  H    0.423218
    25  O   -0.809893
    26  H    0.422636
    27  H    0.403534
    28  O   -0.834527
    29  H    0.403442
    30  H    0.405396
 Sum of Mulliken charges =  -0.00000

 Dipole moment (field-independent basis, Debye):
    X=             -4.6781    Y=              2.8820    Z=              2.4055  Tot=              5.9981
 Quadrupole moment (field-independent basis, Debye-Ang):
   XX=           -105.0507   YY=            -84.2847   ZZ=            -73.4336
   XY=            -14.6842   XZ=              6.8343   YZ=              1.6700

  Exact polarizability:  98.857  -2.139  96.813  -1.774   2.275  83.653
 Approx polarizability: 131.581  -0.580 132.088  -3.158   2.472 119.334

                      1                      2                      3
                      A                      A                      A
 Frequencies --     40.5053                47.3458                75.3015
 Red. masses --      6.6655                 6.3906                 5.9561
 Frc consts  --      0.0064                 0.0084                 0.0199
 IR Inten    --      5.8661                10.9462                 7.8648

                      4                      5                      6
                      A                      A                      A
 Frequencies --     89.7731               103.9848               120.3151
 Red. masses --      6.2760                 6.0977                 3.3442
 Frc consts  --      0.0298                 0.0388                 0.0285
 IR Inten    --      0.2855                 1.9992                 4.9533

                      7                      8                      9
                      A                      A                      A
 Frequencies --    126.5455               149.4580               158.2579
 Red. masses --      6.5314                 5.8573                 5.4027
 Frc consts  --      0.0616                 0.0771                 0.0797
 IR Inten    --      6.6577                 2.6439                 5.1305

                     10                     11                     12
                      A                      A                      A
 Frequencies --    183.5575               208.0533               246.9934
 Red. masses --      3.5681                 5.2553                 3.5204
 Frc consts  --      0.0708                 0.1340                 0.1265
 IR Inten    --      8.2268                10.1841                19.8482

                     13                     14                     15
                      A                      A                      A
 Frequencies --    253.8768               275.7961               286.9204
 Red. masses --      1.3792                 2.3457                 1.7295
 Frc consts  --      0.0524                 0.1051                 0.0839
 IR Inten    --     45.6473                44.9855                62.7302

                     16                     17                     18
                      A                      A                      A
 Frequencies --    288.1927               309.1461               313.7159
 Red. masses --      1.5212                 1.6285                 1.3226
 Frc consts  --      0.0744                 0.0917                 0.0767
 IR Inten    --     31.7690                68.3505                93.0870

                     19                     20                     21
                      A                      A                      A
 Frequencies --    324.0023               348.3328               358.1498
 Red. masses --      3.2346                 1.8072                 1.8259
 Frc consts  --      0.2001                 0.1292                 0.1380
 IR Inten    --     30.9593                66.4466                61.4242

                     22                     23                     24
                      A                      A                      A
 Frequencies --    409.4480               450.4786               454.8719
 Red. masses --      4.0850                 2.6330                 1.2237
 Frc consts  --      0.4035                 0.3148                 0.1492
 IR Inten    --      9.9896                34.4914                 3.7993

                     25                     26                     27
                      A                      A                      A
 Frequencies --    474.9872               493.3217               496.4203
 Red. masses --      1.2744                 3.4623                 1.5272
 Frc consts  --      0.1694                 0.4964                 0.2217
 IR Inten    --     59.1664                 2.5967                27.8312

                     28                     29                     30
                      A                      A                      A
 Frequencies --    522.6115               541.3530               562.5479
 Red. masses --      2.2112                 2.0079                 1.8668
 Frc consts  --      0.3558                 0.3467                 0.3481
 IR Inten    --      0.8610               140.6274               238.4433

                     31                     32                     33
                      A                      A                      A
 Frequencies --    593.2434               602.3473               698.1590
 Red. masses --      1.3251                 2.4461                 4.2410
 Frc consts  --      0.2748                 0.5229                 1.2179
 IR Inten    --    339.3137                52.4477                27.3979

                     34                     35                     36
                      A                      A                      A
 Frequencies --    815.2643               831.0769               911.9285
 Red. masses --      4.5091                 2.4559                 1.9877
 Frc consts  --      1.7658                 0.9994                 0.9739
 IR Inten    --     57.8701                 7.1215                19.6745

                     37                     38                     39
                      A                      A                      A
 Frequencies --    935.6933               957.7302               981.6947
 Red. masses --      1.2993                 3.2663                 2.3668
 Frc consts  --      0.6703                 1.7652                 1.3439
 IR Inten    --     29.6474                15.0047                65.9401

                     40                     41                     42
                      A                      A                      A
 Frequencies --   1034.4181              1047.6037              1060.5645
 Red. masses --      5.0081                 3.3188                 3.0010
 Frc consts  --      3.1573                 2.1460                 1.9888
 IR Inten    --    106.2024                28.7912                92.4346

                     43                     44                     45
                      A                      A                      A
 Frequencies --   1084.3639              1089.4445              1093.7216
 Red. masses --      4.6525                 3.0204                 2.8319
 Frc consts  --      3.2232                 2.1122                 1.9959
 IR Inten    --    118.0980                41.4898                49.6931

                     46                     47                     48
                      A                      A                      A
 Frequencies --   1120.5888              1133.9947              1148.7353
 Red. masses --      3.6614                 3.0273                 2.9001
 Frc consts  --      2.7089                 2.2936                 2.2548
 IR Inten    --     65.7839               120.5019               120.3946

                     49                     50                     51
                      A                      A                      A
 Frequencies --   1201.2867              1226.3383              1255.9440
 Red. masses --      1.3727                 1.1526                 1.1810
 Frc consts  --      1.1671                 1.0213                 1.0976
 IR Inten    --     13.2707                66.7064                33.2155

                     52                     53                     54
                      A                      A                      A
 Frequencies --   1273.0863              1314.0837              1330.9291
 Red. masses --      1.2447                 1.5436                 1.1875
 Frc consts  --      1.1886                 1.5704                 1.2393
 IR Inten    --      2.9664                41.7822                63.4956

                     55                     56                     57
                      A                      A                      A
 Frequencies --   1343.3072              1368.1391              1374.2147
 Red. masses --      1.1944                 1.3748                 1.2385
 Frc consts  --      1.2698                 1.5162                 1.3780
 IR Inten    --      8.1234                15.0050                 4.2944

                     58                     59                     60
                      A                      A                      A
 Frequencies --   1375.5685              1404.0655              1419.7875
 Red. masses --      1.3257                 1.2203                 1.2032
 Frc consts  --      1.4780                 1.4174                 1.4290
 IR Inten    --      2.8908                25.6522                14.9957

                     61                     62                     63
                      A                      A                      A
 Frequencies --   1433.1437              1439.7235              1454.7309
 Red. masses --      1.2591                 1.5460                 1.4114
 Frc consts  --      1.5237                 1.8881                 1.7597
 IR Inten    --     22.8171                 6.4574                 3.9699

                     64                     65                     66
                      A                      A                      A
 Frequencies --   1463.1681              1485.0839              1531.9323
 Red. masses --      1.1883                 1.5156                 1.0861
 Frc consts  --      1.4989                 1.9694                 1.5017
 IR Inten    --     45.3769                14.5964                 3.5387

                     67                     68                     69
                      A                      A                      A
 Frequencies --   1746.2339              1752.2028              3017.4216
 Red. masses --      1.0803                 1.0807                 1.0856
 Frc consts  --      1.9408                 1.9548                 5.8235
 IR Inten    --    227.0928               144.5240                53.4781

                     70                     71                     72
                      A                      A                      A
 Frequencies --   3048.7171              3053.7520              3073.8013
 Red. masses --      1.0682                 1.0866                 1.0862
 Frc consts  --      5.8497                 5.9700                 6.0467
 IR Inten    --     26.6291                71.9255                14.4972

                     73                     74                     75
                      A                      A                      A
 Frequencies --   3079.6877              3124.1098              3142.3613
 Red. masses --      1.0861                 1.0893                 1.0957
 Frc consts  --      6.0690                 6.2642                 6.3748
 IR Inten    --     12.0560                20.0156                 8.6043

                     76                     77                     78
                      A                      A                      A
 Frequencies --   3436.4426              3602.5218              3695.5514
 Red. masses --      1.0676                 1.0554                 1.0645
 Frc consts  --      7.4280                 8.0703                 8.5656
 IR Inten    --    449.8582               268.4638                58.7061

                     79                     80                     81
                      A                      A                      A
 Frequencies --   3703.6433              3744.8189              3751.0697
 Red. masses --      1.0475                 1.0665                 1.0666
 Frc consts  --      8.4659                 8.8123                 8.8420
 IR Inten    --     58.3928                18.7373                18.9160

                     82                     83                     84
                      A                      A                      A
 Frequencies --   3751.4804              3765.5548              3788.3427
 Red. masses --      1.0668                 1.0712                 1.0789
 Frc consts  --      8.8462                 8.9491                 9.1227
 IR Inten    --     43.2586                37.9357                59.7840

 - Thermochemistry -
 -------------------
 Temperature   298.150 Kelvin.  Pressure   1.00000 Atm.
 Atom     1 has atomic number  8 and mass  15.99491

 Molecular mass:   216.08452 amu.
 Principal axes and moments of inertia in atomic units:
                           1         2         3
     Eigenvalues --  2533.067183369.020554508.11342
           X            0.99979  -0.02034   0.00162
           Y            0.02034   0.99979  -0.00389
           Z           -0.00154   0.00393   0.99999
 This molecule is an asymmetric top.
 Rotational symmetry number  1.
 Warning -- assumption of classical behavior for rotation
           may cause significant error
 Rotational temperatures (Kelvin)      0.03419     0.02571     0.01921
 Rotational constants (GHZ):           0.71247     0.53569     0.40033
 Zero-point vibrational energy     650930.5 (Joules/Mol)
                                  155.57612 (Kcal/Mol)
 Warning -- explicit consideration of  32 degrees of freedom as
           vibrations may cause significant error
 Vibrational temperatures:     58.28    68.12   108.34   129.16   149.61
          (Kelvin)            173.11   182.07   215.04   227.70   264.10
                              299.34   355.37   365.27   396.81   412.81
                              414.64   444.79   451.37   466.17   501.17
                              515.30   589.10   648.14   654.46   683.40
                              709.78   714.24   751.92   778.89   809.38
                              853.54   866.64  1004.49  1172.98  1195.73
                             1312.06  1346.25  1377.96  1412.44  1488.30
                             1507.27  1525.91  1560.16  1567.47  1573.62
                             1612.28  1631.56  1652.77  1728.38  1764.43
                             1807.02  1831.68  1890.67  1914.91  1932.72
                             1968.44  1977.19  1979.13  2020.13  2042.75
                             2061.97  2071.44  2093.03  2105.17  2136.70
                             2204.11  2512.44  2521.03  4341.39  4386.42
                             4393.66  4422.51  4430.98  4494.89  4521.15
                             4944.27  5183.22  5317.07  5328.71  5387.95
                             5396.95  5397.54  5417.79  5450.57

 Zero-point correction=                           0.247926 (Hartree/Particle)
 Thermal correction to Energy=                    0.265991
 Thermal correction to Enthalpy=                  0.266935
 Thermal correction to Gibbs Free Energy=         0.203010
 Sum of electronic and zero-point Energies=           -839.732678
 Sum of electronic and thermal Energies=              -839.714614
 Sum of electronic and thermal Enthalpies=            -839.713670
 Sum of electronic and thermal Free Energies=         -839.777595

                     E (Thermal)             CV                S
                      KCal/Mol        Cal/Mol-Kelvin    Cal/Mol-Kelvin
 Total                  166.912             66.047            134.541
 Electronic               0.000              0.000              0.000
 Translational            0.889              2.981             42.015
 Rotational               0.889              2.981             32.020
 Vibrational            165.134             60.086             60.506
 Vibration     1          0.594              1.981              5.234
 Vibration     2          0.595              1.979              4.925
 Vibration     3          0.599              1.965              4.010
 Vibration     4          0.602              1.956              3.665
 Vibration     5          0.605              1.946              3.378
 Vibration     6          0.609              1.932              3.095
 Vibration     7          0.611              1.927              2.998
 Vibration     8          0.618              1.903              2.679
 Vibration     9          0.621              1.893              2.571
 Vibration    10          0.631              1.862              2.292
 Vibration    11          0.641              1.828              2.061
 Vibration    12          0.661              1.768              1.752
 Vibration    13          0.665              1.756              1.704
 Vibration    14          0.677              1.718              1.560
 Vibration    15          0.684              1.698              1.492
 Vibration    16          0.685              1.696              1.485
 Vibration    17          0.698              1.656              1.367
 Vibration    18          0.702              1.648              1.343
 Vibration    19          0.709              1.627              1.290
 Vibration    20          0.726              1.579              1.174
 Vibration    21          0.733              1.559              1.130
 Vibration    22          0.774              1.450              0.929
 Vibration    23          0.809              1.360              0.794
 Vibration    24          0.813              1.350              0.781
 Vibration    25          0.832              1.306              0.724
 Vibration    26          0.849              1.265              0.675
 Vibration    27          0.852              1.258              0.667
 Vibration    28          0.878              1.200              0.604
 Vibration    29          0.896              1.159              0.562
 Vibration    30          0.918              1.112              0.519
 Vibration    31          0.951              1.046              0.461
 Vibration    32          0.961              1.027              0.446

 Normal termination of Gaussian 09 at Mon Jan 16 00:58:58 2017.
