 Gaussian 09, Revision E.01,
 Gaussian 09:  ES64L-G09RevE.01 30-Nov-2015

 -------------------------
 # b3lyp/6-31g(d) opt freq
 -------------------------

 -----------------------------------
 glo_2w_alpha_ircr_boat5_B3LYP_631Gd
 -----------------------------------
 Symbolic Z-matrix:
 Charge =  0 Multiplicity = 1

 SCF Done:  E(RB3LYP) =  -839.937014138     A.U. after   14 cycles
 SCF Done:  E(RB3LYP) =  -839.914788668     A.U. after   13 cycles
 SCF Done:  E(RB3LYP) =  -839.937667471     A.U. after   11 cycles
 SCF Done:  E(RB3LYP) =  -839.938791305     A.U. after   11 cycles
 SCF Done:  E(RB3LYP) =  -839.938598364     A.U. after   12 cycles
 SCF Done:  E(RB3LYP) =  -839.939209459     A.U. after    9 cycles
 SCF Done:  E(RB3LYP) =  -839.939509381     A.U. after   11 cycles
 SCF Done:  E(RB3LYP) =  -839.939944041     A.U. after   12 cycles
 SCF Done:  E(RB3LYP) =  -839.940164080     A.U. after   12 cycles
 SCF Done:  E(RB3LYP) =  -839.940350864     A.U. after   12 cycles
 SCF Done:  E(RB3LYP) =  -840.001601273     A.U. after    8 cycles
 SCF Done:  E(RB3LYP) =  -840.001602503     A.U. after    7 cycles
 SCF Done:  E(RB3LYP) =  -840.001603492     A.U. after    7 cycles
 SCF Done:  E(RB3LYP) =  -840.001604252     A.U. after    7 cycles
 SCF Done:  E(RB3LYP) =  -840.001604687     A.U. after    7 cycles
 SCF Done:  E(RB3LYP) =  -840.001604854     A.U. after    7 cycles
 SCF Done:  E(RB3LYP) =  -840.001604949     A.U. after    6 cycles
 SCF Done:  E(RB3LYP) =  -840.001604999     A.U. after    6 cycles
 SCF Done:  E(RB3LYP) =  -840.001605027     A.U. after    6 cycles
 Optimization completed.
    -- Stationary point found.
 Normal termination of Gaussian 09 at Mon Jan 16 00:15:53 2017.

 --------------------------------------------------------------------
 #N Geom=AllCheck Guess=TCheck SCRF=Check GenChk RB3LYP/6-31G(d) Freq
 --------------------------------------------------------------------

 Structure from the checkpoint file:  "/scratch/10464850.yak.local/Gau-13847.chk"
 -----------------------------------
 glo_2w_alpha_ircr_boat5_B3LYP_631Gd
 -----------------------------------
 Charge =  0 Multiplicity = 1

                         Standard orientation:
 ---------------------------------------------------------------------
 Center     Atomic      Atomic             Coordinates (Angstroms)
 Number     Number       Type             X           Y           Z
 ---------------------------------------------------------------------
      1          8           0        0.486488   -0.668011   -0.578989
      2          6           0       -1.339706    0.054674    0.982493
      3          6           0       -0.332882    1.625319   -0.827068
      4          6           0       -1.568891    1.261075    0.039872
      5          6           0        0.866863    0.707754   -0.559324
      6          6           0       -0.602507   -1.099454    0.283035
      7          1           0       -1.803797    2.127499    0.672002
      8          1           0       -0.163378   -1.720760    1.077841
      9          1           0       -2.316878   -0.343271    1.279322
     10          1           0       -0.638030    1.483434   -1.867656
     11          6           0       -1.513440   -1.966888   -0.599938
     12          1           0       -0.898465   -2.721103   -1.114850
     13          1           0       -1.988076   -1.339230   -1.355801
     14          8           0       -2.568381   -2.564624    0.142239
     15          1           0       -2.177319   -3.189558    0.773037
     16          8           0        0.069348    2.976253   -0.701348
     17          1           0        0.619119    3.012836    0.100933
     18          8           0       -2.627815    1.004387   -0.887946
     19          1           0       -3.434614    0.823723   -0.379134
     20          8           0       -0.710154    0.443097    2.191667
     21          1           0        0.194430    0.731879    1.954625
     22          1           0        1.595196    0.788874   -1.373212
     23          8           0        1.457797    1.100433    0.654391
     24          1           0        3.656156   -0.856247    0.071679
     25          8           0        2.845255   -2.136799   -0.775198
     26          1           0        2.781732   -2.923885   -0.213541
     27          1           0        1.938284   -1.751542   -0.783852
     28          8           0        3.883724   -0.006699    0.532706
     29          1           0        4.495512    0.451004   -0.062983
     30          1           0        2.393406    0.747165    0.687001
 ---------------------------------------------------------------------

 SCF Done:  E(RB3LYP) =  -840.001605027     A.U. after    1 cycles

 The electronic state is 1-A.
 Alpha  occ. eigenvalues --  -19.18263 -19.16911 -19.16450 -19.16213 -19.15840
 Alpha  occ. eigenvalues --  -19.15201 -19.14186 -19.12935 -10.29925 -10.24991
 Alpha  occ. eigenvalues --  -10.23797 -10.23693 -10.23641 -10.23548  -1.08377
 Alpha  occ. eigenvalues --   -1.03170  -1.03108  -1.02704  -1.02329  -1.01457
 Alpha  occ. eigenvalues --   -1.00638  -1.00266  -0.78037  -0.76505  -0.68732
 Alpha  occ. eigenvalues --   -0.65836  -0.63222  -0.58421  -0.55613  -0.54498
 Alpha  occ. eigenvalues --   -0.54247  -0.53476  -0.51968  -0.50775  -0.49291
 Alpha  occ. eigenvalues --   -0.48718  -0.46333  -0.44916  -0.43032  -0.42401
 Alpha  occ. eigenvalues --   -0.41871  -0.41296  -0.40548  -0.39080  -0.38356
 Alpha  occ. eigenvalues --   -0.36163  -0.36074  -0.34873  -0.33354  -0.33085
 Alpha  occ. eigenvalues --   -0.32508  -0.31608  -0.30625  -0.30323  -0.28825
 Alpha  occ. eigenvalues --   -0.26965  -0.26333  -0.24824
 Alpha virt. eigenvalues --    0.03531   0.05518   0.06256   0.07675   0.09517
 Alpha virt. eigenvalues --    0.10863   0.11165   0.12606   0.14218   0.14451
 Alpha virt. eigenvalues --    0.15476   0.16076   0.16822   0.18426   0.19950

 Mulliken charges:
               1
     1  O   -0.549602
     2  C    0.090706
     3  C    0.108509
     4  C    0.095860
     5  C    0.287723
     6  C    0.099885
     7  H    0.148887
     8  H    0.124279
     9  H    0.146280
    10  H    0.173006
    11  C   -0.059758
    12  H    0.124919
    13  H    0.184679
    14  O   -0.610156
    15  H    0.391661
    16  O   -0.632144
    17  H    0.402961
    18  O   -0.631824
    19  H    0.398526
    20  O   -0.666547
    21  H    0.421331
    22  H    0.143459
    23  O   -0.687554
    24  H    0.434084
    25  O   -0.815760
    26  H    0.401713
    27  H    0.440275
    28  O   -0.822960
    29  H    0.402555
    30  H    0.455007
 Sum of Mulliken charges =  -0.00000

 Dipole moment (field-independent basis, Debye):
    X=              2.2159    Y=             -3.0789    Z=              0.1619  Tot=              3.7968
 Quadrupole moment (field-independent basis, Debye-Ang):
   XX=            -78.0549   YY=            -79.6213   ZZ=            -92.5690
   XY=              0.0976   XZ=             -4.2939   YZ=             -1.8990

  Exact polarizability: 102.757   4.319  97.840  -1.518  -0.946  81.057
 Approx polarizability: 132.631   5.946 127.446  -0.418  -0.521 123.025

                      1                      2                      3
                      A                      A                      A
 Frequencies --     17.3406                38.8390                45.3689
 Red. masses --      5.5420                 5.2319                 5.5032
 Frc consts  --      0.0010                 0.0046                 0.0067
 IR Inten    --      0.3920                 1.3458                 0.3321

                      4                      5                      6
                      A                      A                      A
 Frequencies --     76.7103                85.9990               144.5949
 Red. masses --      4.8193                 6.9226                 4.5592
 Frc consts  --      0.0167                 0.0302                 0.0562
 IR Inten    --      4.2708                 3.1667                 3.9665

                      7                      8                      9
                      A                      A                      A
 Frequencies --    161.8735               191.0320               205.8680
 Red. masses --      6.1102                 4.9414                 3.4578
 Frc consts  --      0.0943                 0.1062                 0.0863
 IR Inten    --      6.1960                 9.8942                12.5121

                     10                     11                     12
                      A                      A                      A
 Frequencies --    230.0814               243.6732               256.6550
 Red. masses --      6.2245                 1.0636                 5.5433
 Frc consts  --      0.1941                 0.0372                 0.2151
 IR Inten    --      1.4001               125.5025                 0.6445

                     13                     14                     15
                      A                      A                      A
 Frequencies --    259.5761               283.9958               307.2518
 Red. masses --      4.3283                 6.2684                 2.2785
 Frc consts  --      0.1718                 0.2979                 0.1267
 IR Inten    --      3.5605                 7.5056                16.9791

                     16                     17                     18
                      A                      A                      A
 Frequencies --    340.5407               360.5097               363.9358
 Red. masses --      1.6864                 1.1686                 1.3469
 Frc consts  --      0.1152                 0.0895                 0.1051
 IR Inten    --    139.9564                98.7791               156.7719

                     19                     20                     21
                      A                      A                      A
 Frequencies --    375.9001               385.7442               400.1937
 Red. masses --      3.7414                 4.2578                 1.8234
 Frc consts  --      0.3115                 0.3733                 0.1721
 IR Inten    --      8.7404                 5.6159                17.7031

                     22                     23                     24
                      A                      A                      A
 Frequencies --    428.6672               459.9411               463.6928
 Red. masses --      1.3705                 1.9594                 4.3642
 Frc consts  --      0.1484                 0.2442                 0.5529
 IR Inten    --     26.8141                93.9149                34.3880

                     25                     26                     27
                      A                      A                      A
 Frequencies --    476.2033               503.7904               514.0469
 Red. masses --      2.1276                 1.1307                 5.2291
 Frc consts  --      0.2843                 0.1691                 0.8141
 IR Inten    --     39.3815                21.2188                20.3092

                     28                     29                     30
                      A                      A                      A
 Frequencies --    570.8995               626.5190               659.8210
 Red. masses --      4.6731                 3.2122                 1.3524
 Frc consts  --      0.8974                 0.7429                 0.3469
 IR Inten    --     12.6614                27.2771                73.9936

                     31                     32                     33
                      A                      A                      A
 Frequencies --    688.2044               701.3900               802.1957
 Red. masses --      2.4262                 1.3506                 2.9014
 Frc consts  --      0.6770                 0.3915                 1.1001
 IR Inten    --     49.2875               129.7834                24.1573

                     34                     35                     36
                      A                      A                      A
 Frequencies --    842.0302               886.4292               921.4435
 Red. masses --      3.5588                 3.0746                 1.0866
 Frc consts  --      1.4867                 1.4234                 0.5436
 IR Inten    --     37.3921                24.0347               176.2440

                     37                     38                     39
                      A                      A                      A
 Frequencies --    954.8045               994.8549              1023.0314
 Red. masses --      3.2911                 2.2856                 3.1635
 Frc consts  --      1.7678                 1.3328                 1.9507
 IR Inten    --     14.3673                49.2123                14.1814

                     40                     41                     42
                      A                      A                      A
 Frequencies --   1044.4133              1052.9266              1079.8487
 Red. masses --      1.1588                 2.5816                 4.7718
 Frc consts  --      0.7447                 1.6863                 3.2783
 IR Inten    --    147.3346                19.7515               318.2740

                     43                     44                     45
                      A                      A                      A
 Frequencies --   1088.4795              1094.0678              1111.1378
 Red. masses --      3.8281                 3.6420                 2.7447
 Frc consts  --      2.6722                 2.5685                 1.9965
 IR Inten    --     49.0678                 5.8579                 3.8481

                     46                     47                     48
                      A                      A                      A
 Frequencies --   1121.4400              1126.1920              1163.6227
 Red. masses --      2.4237                 3.6981                 3.1480
 Frc consts  --      1.7959                 2.7634                 2.5114
 IR Inten    --      2.6240               170.4783               117.5793

                     49                     50                     51
                      A                      A                      A
 Frequencies --   1212.6421              1230.8275              1272.9294
 Red. masses --      1.3171                 1.1564                 1.4925
 Frc consts  --      1.1411                 1.0322                 1.4249
 IR Inten    --     14.7304                29.7691                13.2690

                     52                     53                     54
                      A                      A                      A
 Frequencies --   1305.2544              1326.2503              1333.2869
 Red. masses --      1.4126                 1.1850                 1.2219
 Frc consts  --      1.4179                 1.2280                 1.2797
 IR Inten    --     12.3376                19.7648                45.0105

                     55                     56                     57
                      A                      A                      A
 Frequencies --   1355.2149              1365.9358              1369.9640
 Red. masses --      1.2509                 1.2653                 1.3015
 Frc consts  --      1.3536                 1.3909                 1.4392
 IR Inten    --     29.2347                 0.0443                 1.0215

                     58                     59                     60
                      A                      A                      A
 Frequencies --   1400.8151              1409.3756              1417.6742
 Red. masses --      1.2327                 1.5145                 1.2318
 Frc consts  --      1.4252                 1.7725                 1.4586
 IR Inten    --     32.5824                10.3787                15.5519

                     61                     62                     63
                      A                      A                      A
 Frequencies --   1441.8779              1447.2934              1460.7505
 Red. masses --      1.2672                 1.4378                 1.2750
 Frc consts  --      1.5522                 1.7744                 1.6029
 IR Inten    --     21.4870                21.0777                47.0957

                     64                     65                     66
                      A                      A                      A
 Frequencies --   1499.8224              1524.4207              1533.0291
 Red. masses --      1.2251                 1.2523                 1.0827
 Frc consts  --      1.6237                 1.7147                 1.4991
 IR Inten    --     25.0335               109.0453                 7.9594

                     67                     68                     69
                      A                      A                      A
 Frequencies --   1728.3944              1746.1419              3010.4667
 Red. masses --      1.0783                 1.0685                 1.0772
 Frc consts  --      1.8979                 1.9194                 5.7517
 IR Inten    --     84.3693                19.9812                57.0556

                     70                     71                     72
                      A                      A                      A
 Frequencies --   3018.7245              3047.1016              3076.8748
 Red. masses --      1.0804                 1.0857                 1.0856
 Frc consts  --      5.8006                 5.9392                 6.0553
 IR Inten    --     52.7062                28.7722                32.5174

                     73                     74                     75
                      A                      A                      A
 Frequencies --   3082.0848              3107.8047              3155.9990
 Red. masses --      1.0872                 1.0870                 1.0937
 Frc consts  --      6.0849                 6.1857                 6.4183
 IR Inten    --     21.2331                17.6604                 5.7337

                     76                     77                     78
                      A                      A                      A
 Frequencies --   3189.4335              3369.7532              3501.3156
 Red. masses --      1.0698                 1.0621                 1.0587
 Frc consts  --      6.4116                 7.1056                 7.6472
 IR Inten    --   1003.1058               851.0551               717.5722

                     79                     80                     81
                      A                      A                      A
 Frequencies --   3593.7863              3700.2618              3734.4450
 Red. masses --      1.0654                 1.0650                 1.0661
 Frc consts  --      8.1068                 8.5915                 8.7603
 IR Inten    --    170.8889                37.0455                12.5319

                     82                     83                     84
                      A                      A                      A
 Frequencies --   3734.5743              3800.4842              3801.4730
 Red. masses --      1.0660                 1.0691                 1.0676
 Frc consts  --      8.7600                 9.0979                 9.0897
 IR Inten    --     14.5612                81.0944                44.8685

 - Thermochemistry -
 -------------------
 Temperature   298.150 Kelvin.  Pressure   1.00000 Atm.
 Atom     1 has atomic number  8 and mass  15.99491

 Molecular mass:   216.08452 amu.
 Principal axes and moments of inertia in atomic units:
                           1         2         3
     Eigenvalues --  2525.997083503.174114812.29161
           X            0.99996  -0.00780  -0.00325
           Y            0.00781   0.99996   0.00414
           Z            0.00322  -0.00416   0.99999
 This molecule is an asymmetric top.
 Rotational symmetry number  1.
 Warning -- assumption of classical behavior for rotation
           may cause significant error
 Rotational temperatures (Kelvin)      0.03429     0.02472     0.01800
 Rotational constants (GHZ):           0.71447     0.51517     0.37503
 Zero-point vibrational energy     654849.3 (Joules/Mol)
                                  156.51275 (Kcal/Mol)
 Warning -- explicit consideration of  28 degrees of freedom as
           vibrations may cause significant error
 Vibrational temperatures:     24.95    55.88    65.28   110.37   123.73
          (Kelvin)            208.04   232.90   274.85   296.20   331.04
                              350.59   369.27   373.47   408.61   442.07
                              489.96   518.69   523.62   540.84   555.00
                              575.79   616.76   661.75   667.15   685.15
                              724.84   739.60   821.40   901.42   949.33
                              990.17  1009.14  1154.18  1211.49  1275.37
                             1325.75  1373.75  1431.37  1471.91  1502.68
                             1514.92  1553.66  1566.08  1574.12  1598.68
                             1613.50  1620.34  1674.19  1744.72  1770.88
                             1831.46  1877.97  1908.18  1918.30  1949.85
                             1965.27  1971.07  2015.46  2027.77  2039.71
                             2074.54  2082.33  2101.69  2157.91  2193.30
                             2205.68  2486.77  2512.31  4331.38  4343.27
                             4384.09  4426.93  4434.43  4471.43  4540.77
                             4588.88  4848.32  5037.61  5170.65  5323.84
                             5373.03  5373.21  5468.04  5469.46

 Zero-point correction=                           0.249419 (Hartree/Particle)
 Thermal correction to Energy=                    0.266552
 Thermal correction to Enthalpy=                  0.267497
 Thermal correction to Gibbs Free Energy=         0.204209
 Sum of electronic and zero-point Energies=           -839.752186
 Sum of electronic and thermal Energies=              -839.735053
 Sum of electronic and thermal Enthalpies=            -839.734108
 Sum of electronic and thermal Free Energies=         -839.797396

                     E (Thermal)             CV                S
                      KCal/Mol        Cal/Mol-Kelvin    Cal/Mol-Kelvin
 Total                  167.264             63.529            133.200
 Electronic               0.000              0.000              0.000
 Translational            0.889              2.981             42.015
 Rotational               0.889              2.981             32.121
 Vibrational            165.487             57.567             59.064
 Vibration     1          0.593              1.986              6.918
 Vibration     2          0.594              1.981              5.317
 Vibration     3          0.595              1.979              5.010
 Vibration     4          0.599              1.965              3.973
 Vibration     5          0.601              1.959              3.749
 Vibration     6          0.616              1.909              2.742
 Vibration     7          0.622              1.889              2.528
 Vibration     8          0.634              1.852              2.218
 Vibration     9          0.640              1.832              2.080
 Vibration    10          0.652              1.795              1.878
 Vibration    11          0.659              1.773              1.776
 Vibration    12          0.666              1.752              1.684
 Vibration    13          0.668              1.747              1.665
 Vibration    14          0.682              1.703              1.509
 Vibration    15          0.697              1.660              1.377
 Vibration    16          0.720              1.594              1.210
 Vibration    17          0.735              1.554              1.120
 Vibration    18          0.737              1.547              1.105
 Vibration    19          0.747              1.521              1.056
 Vibration    20          0.754              1.501              1.017
 Vibration    21          0.766              1.470              0.962
 Vibration    22          0.790              1.408              0.863
 Vibration    23          0.818              1.339              0.766
 Vibration    24          0.821              1.331              0.755
 Vibration    25          0.833              1.303              0.720
 Vibration    26          0.859              1.242              0.649
 Vibration    27          0.869              1.219              0.624
 Vibration    28          0.927              1.094              0.503

 Normal termination of Gaussian 09 at Mon Jan 16 00:48:35 2017.
