 Gaussian 09, Revision E.01,
 Gaussian 09:  ES64L-G09RevE.01 30-Nov-2015

 -------------------------
 # b3lyp/6-31g(d) opt freq
 -------------------------

 ----------------------------------
 glo_1w_beta_ircr_boat5_B3LYP_631Gd
 ----------------------------------
 Symbolic Z-matrix:
 Charge =  0 Multiplicity = 1

 SCF Done:  E(RB3LYP) =  -839.952884875     A.U. after   14 cycles
 SCF Done:  E(RB3LYP) =  -839.961109460     A.U. after   13 cycles
 SCF Done:  E(RB3LYP) =  -839.965856407     A.U. after   13 cycles
 SCF Done:  E(RB3LYP) =  -839.968918550     A.U. after   13 cycles
 SCF Done:  E(RB3LYP) =  -839.970392952     A.U. after   12 cycles
 SCF Done:  E(RB3LYP) =  -839.971507053     A.U. after   13 cycles
 SCF Done:  E(RB3LYP) =  -839.972208813     A.U. after   13 cycles
 SCF Done:  E(RB3LYP) =  -839.972809989     A.U. after   13 cycles
 SCF Done:  E(RB3LYP) =  -839.972236963     A.U. after   14 cycles
 SCF Done:  E(RB3LYP) =  -839.973539542     A.U. after   12 cycles
 SCF Done:  E(RB3LYP) =  -839.984005929     A.U. after    8 cycles
 SCF Done:  E(RB3LYP) =  -839.983995995     A.U. after   10 cycles
 SCF Done:  E(RB3LYP) =  -839.984005391     A.U. after    9 cycles
 SCF Done:  E(RB3LYP) =  -839.984005705     A.U. after    8 cycles
 SCF Done:  E(RB3LYP) =  -839.984003758     A.U. after    8 cycles
 SCF Done:  E(RB3LYP) =  -839.984003419     A.U. after    8 cycles
 SCF Done:  E(RB3LYP) =  -839.984003913     A.U. after    7 cycles
 SCF Done:  E(RB3LYP) =  -839.984004590     A.U. after    7 cycles
 SCF Done:  E(RB3LYP) =  -839.984005471     A.U. after    7 cycles
 Optimization completed.
    -- Stationary point found.
 Normal termination of Gaussian 09 at Mon Jan 16 00:54:15 2017.

 --------------------------------------------------------------------
 #N Geom=AllCheck Guess=TCheck SCRF=Check GenChk RB3LYP/6-31G(d) Freq
 --------------------------------------------------------------------

 Structure from the checkpoint file:  "/scratch/10464851.yak.local/Gau-20993.chk"
 ----------------------------------
 glo_1w_beta_ircr_boat5_B3LYP_631Gd
 ----------------------------------
 Charge =  0 Multiplicity = 1

                         Standard orientation:
 ---------------------------------------------------------------------
 Center     Atomic      Atomic             Coordinates (Angstroms)
 Number     Number       Type             X           Y           Z
 ---------------------------------------------------------------------
      1          8           0        0.474367   -1.349992   -1.306003
      2          6           0       -0.091543   -0.951034    1.086812
      3          6           0        0.355990    1.429945    0.083975
      4          6           0       -0.510736    0.532316    1.004692
      5          6           0        1.790530    1.574411    0.582290
      6          6           0       -0.229553   -1.824074   -0.182990
      7          1           0       -0.415935    0.953555    2.021363
      8          1           0        0.157234   -2.810042    0.127757
      9          1           0       -0.734232   -1.421914    1.848835
     10          1           0        0.365345    1.016112   -0.929872
     11          6           0       -1.679681   -1.981576   -0.681108
     12          1           0       -1.760413   -2.887830   -1.293308
     13          1           0       -1.913782   -1.126226   -1.315656
     14          1           0        1.862321    2.190947    1.502819
     15          8           0        2.799220    1.188726    0.027447
     16          8           0       -2.678243   -1.975382    0.350364
     17          1           0       -2.574447   -2.772025    0.893776
     18          8           0       -0.092204    2.773971    0.137348
     19          1           0       -0.864107    2.862529   -0.470722
     20          8           0       -1.878195    0.660387    0.600165
     21          1           0       -2.351933   -0.172808    0.801195
     22          8           0        1.275169   -1.047792    1.491851
     23          1           0        1.339718   -0.793055    2.425277
     24          8           0        3.183400   -1.336902   -1.181844
     25          1           0        1.448501   -1.491470   -1.191740
     26          1           0        3.440846   -1.121345   -2.091568
     27          1           0        3.158118   -0.466711   -0.730467
     28          8           0       -2.374662    2.523197   -1.373840
     29          1           0       -2.469551    1.799290   -0.717331
     30          1           0       -2.168538    2.071354   -2.206276
 ---------------------------------------------------------------------

 SCF Done:  E(RB3LYP) =  -839.984005471     A.U. after    1 cycles

 The electronic state is 1-A.
 Alpha  occ. eigenvalues --  -19.18499 -19.16945 -19.16304 -19.16285 -19.14691
 Alpha  occ. eigenvalues --  -19.14682 -19.13150 -19.12872 -10.28626 -10.25332
 Alpha  occ. eigenvalues --  -10.25091 -10.24667 -10.24534 -10.23804  -1.05978
 Alpha  occ. eigenvalues --   -1.05488  -1.04367  -1.03360  -1.01251  -1.00773
 Alpha  occ. eigenvalues --   -0.99893  -0.99743  -0.78012  -0.75087  -0.70223
 Alpha  occ. eigenvalues --   -0.65195  -0.60594  -0.58273  -0.54843  -0.53534
 Alpha  occ. eigenvalues --   -0.52868  -0.52535  -0.52285  -0.50839  -0.49767
 Alpha  occ. eigenvalues --   -0.46936  -0.45678  -0.44374  -0.44086  -0.43385
 Alpha  occ. eigenvalues --   -0.42656  -0.40917  -0.40043  -0.38775  -0.37934
 Alpha  occ. eigenvalues --   -0.37627  -0.36095  -0.35242  -0.34611  -0.33703
 Alpha  occ. eigenvalues --   -0.31195  -0.30587  -0.29735  -0.29206  -0.28276
 Alpha  occ. eigenvalues --   -0.27344  -0.25929  -0.24637
 Alpha virt. eigenvalues --   -0.03477   0.03508   0.04421   0.06188   0.08007
 Alpha virt. eigenvalues --    0.10064   0.11593   0.12889   0.13437   0.14623
 Alpha virt. eigenvalues --    0.15764   0.16198   0.17110   0.18142   0.19233

 Mulliken charges:
               1
     1  O   -0.678800
     2  C    0.065041
     3  C    0.041033
     4  C    0.146824
     5  C    0.285300
     6  C    0.119402
     7  H    0.113053
     8  H    0.125446
     9  H    0.103882
    10  H    0.156293
    11  C   -0.076747
    12  H    0.154593
    13  H    0.169728
    14  H    0.127137
    15  O   -0.422222
    16  O   -0.629920
    17  H    0.404989
    18  O   -0.673706
    19  H    0.437027
    20  O   -0.691569
    21  H    0.441383
    22  O   -0.622314
    23  H    0.400558
    24  O   -0.801772
    25  H    0.441189
    26  H    0.396349
    27  H    0.441021
    28  O   -0.803330
    29  H    0.434924
    30  H    0.395207
 Sum of Mulliken charges =  -0.00000

 Dipole moment (field-independent basis, Debye):
    X=             -1.0967    Y=             -4.0217    Z=              1.2643  Tot=              4.3561
 Quadrupole moment (field-independent basis, Debye-Ang):
   XX=            -91.3345   YY=            -90.8188   ZZ=            -68.9737
   XY=             11.2710   XZ=             -2.3561   YZ=             -3.9528

  Exact polarizability: 102.026   2.252  96.379  -0.342   2.894  89.388
 Approx polarizability: 138.996  -3.218 127.887  -5.264   2.770 129.992

                      1                      2                      3
                      A                      A                      A
 Frequencies --     19.2646                37.4016                58.8847
 Red. masses --      6.1459                 4.8204                 6.4978
 Frc consts  --      0.0013                 0.0040                 0.0133
 IR Inten    --      1.6551                 2.0175                 4.8538

                      4                      5                      6
                      A                      A                      A
 Frequencies --     69.9714                98.4833               139.4820
 Red. masses --      5.4091                 6.8971                 4.9619
 Frc consts  --      0.0156                 0.0394                 0.0569
 IR Inten    --      7.8367                 7.8004                 6.6693

                      7                      8                      9
                      A                      A                      A
 Frequencies --    156.6523               161.7697               183.9081
 Red. masses --      6.1480                 3.5103                 5.6378
 Frc consts  --      0.0889                 0.0541                 0.1123
 IR Inten    --      7.6977                32.0151                 5.9893

                     10                     11                     12
                      A                      A                      A
 Frequencies --    195.7819               205.0311               216.9075
 Red. masses --      5.2218                 5.6606                 5.5219
 Frc consts  --      0.1179                 0.1402                 0.1531
 IR Inten    --     12.3037                 2.1348                11.7432

                     13                     14                     15
                      A                      A                      A
 Frequencies --    219.8835               233.8203               274.0358
 Red. masses --      5.4302                 6.1266                 1.7457
 Frc consts  --      0.1547                 0.1973                 0.0772
 IR Inten    --      6.0161                10.6530                76.3366

                     16                     17                     18
                      A                      A                      A
 Frequencies --    281.7793               292.9376               294.9482
 Red. masses --      1.3355                 1.3469                 1.3085
 Frc consts  --      0.0625                 0.0681                 0.0671
 IR Inten    --     34.5193                19.9673                99.1972

                     19                     20                     21
                      A                      A                      A
 Frequencies --    304.6350               322.6016               327.4518
 Red. masses --      2.4655                 1.3091                 2.1034
 Frc consts  --      0.1348                 0.0803                 0.1329
 IR Inten    --     17.5415                49.4863                59.1629

                     22                     23                     24
                      A                      A                      A
 Frequencies --    361.7171               367.3779               397.6430
 Red. masses --      1.6279                 2.5252                 1.3558
 Frc consts  --      0.1255                 0.2008                 0.1263
 IR Inten    --     44.0483                65.4945                89.1207

                     25                     26                     27
                      A                      A                      A
 Frequencies --    441.1854               458.3924               483.8806
 Red. masses --      3.7546                 3.5648                 3.8070
 Frc consts  --      0.4306                 0.4413                 0.5252
 IR Inten    --      0.7512                 9.3746                 2.7203

                     28                     29                     30
                      A                      A                      A
 Frequencies --    503.5308               558.6549               586.2598
 Red. masses --      6.4157                 3.6599                 1.2648
 Frc consts  --      0.9584                 0.6730                 0.2561
 IR Inten    --      7.6701                 5.1498               238.1503

                     31                     32                     33
                      A                      A                      A
 Frequencies --    596.7047               644.4233               709.5569
 Red. masses --      2.9031                 1.0817                 1.1155
 Frc consts  --      0.6090                 0.2647                 0.3309
 IR Inten    --     31.5777               249.8789               186.8915

                     34                     35                     36
                      A                      A                      A
 Frequencies --    754.5381               775.9514               903.9661
 Red. masses --      3.7461                 2.4373                 1.1419
 Frc consts  --      1.2566                 0.8646                 0.5498
 IR Inten    --     42.7595                17.3393               109.0993

                     37                     38                     39
                      A                      A                      A
 Frequencies --    936.6137               942.7913               994.9933
 Red. masses --      1.2823                 1.7431                 1.7766
 Frc consts  --      0.6628                 0.9128                 1.0363
 IR Inten    --    118.4352               102.8504                70.6572

                     40                     41                     42
                      A                      A                      A
 Frequencies --   1012.7821              1037.9088              1051.9099
 Red. masses --      2.7021                 2.6272                 3.8312
 Frc consts  --      1.6330                 1.6675                 2.4977
 IR Inten    --     73.5964                29.7042                74.8170

                     43                     44                     45
                      A                      A                      A
 Frequencies --   1079.2221              1095.0462              1100.1442
 Red. masses --      4.8326                 4.1891                 3.6027
 Frc consts  --      3.3163                 2.9596                 2.5691
 IR Inten    --     13.4930                53.8887                84.8821

                     46                     47                     48
                      A                      A                      A
 Frequencies --   1116.5014              1125.1156              1153.5916
 Red. masses --      3.2420                 3.2355                 2.4650
 Frc consts  --      2.3811                 2.4132                 1.9327
 IR Inten    --     16.4597                11.8936                15.5430

                     49                     50                     51
                      A                      A                      A
 Frequencies --   1193.5063              1251.1042              1272.0905
 Red. masses --      1.3586                 1.2211                 1.2526
 Frc consts  --      1.1402                 1.1262                 1.1943
 IR Inten    --     16.9806                52.0638                 7.8140

                     52                     53                     54
                      A                      A                      A
 Frequencies --   1289.4267              1333.8631              1340.2064
 Red. masses --      1.1769                 1.1574                 1.2128
 Frc consts  --      1.1528                 1.2133                 1.2835
 IR Inten    --     24.1119                49.8628                10.4366

                     55                     56                     57
                      A                      A                      A
 Frequencies --   1354.4511              1378.1342              1391.6189
 Red. masses --      1.2057                 1.2639                 1.1378
 Frc consts  --      1.3032                 1.4143                 1.2983
 IR Inten    --      8.5968                57.8417                32.6575

                     58                     59                     60
                      A                      A                      A
 Frequencies --   1419.2330              1424.4239              1432.5797
 Red. masses --      1.2093                 1.3713                 1.1785
 Frc consts  --      1.4352                 1.6393                 1.4250
 IR Inten    --      2.2501                24.3886                13.3040

                     61                     62                     63
                      A                      A                      A
 Frequencies --   1452.0344              1469.9773              1493.7155
 Red. masses --      1.4619                 1.3628                 1.3282
 Frc consts  --      1.8161                 1.7350                 1.7460
 IR Inten    --      4.1360                 6.8601                51.7488

                     64                     65                     66
                      A                      A                      A
 Frequencies --   1500.1454              1530.1296              1716.7653
 Red. masses --      1.3176                 1.0787                 1.0768
 Frc consts  --      1.7470                 1.4881                 1.8699
 IR Inten    --     42.7740                 1.4554                74.0677

                     67                     68                     69
                      A                      A                      A
 Frequencies --   1723.6410              1825.6546              2946.7142
 Red. masses --      1.0789                 9.9186                 1.0846
 Frc consts  --      1.8885                19.4777                 5.5487
 IR Inten    --     78.9605               198.3073                36.7753

                     70                     71                     72
                      A                      A                      A
 Frequencies --   2962.6793              2973.9481              2990.4404
 Red. masses --      1.0831                 1.0829                 1.0849
 Frc consts  --      5.6012                 5.6427                 5.7163
 IR Inten    --    101.6871                31.4289                94.9109

                     73                     74                     75
                      A                      A                      A
 Frequencies --   3066.9454              3093.1604              3158.5423
 Red. masses --      1.0693                 1.0864                 1.0980
 Frc consts  --      5.9259                 6.1241                 6.4540
 IR Inten    --     48.3409                11.4090                17.2005

                     76                     77                     78
                      A                      A                      A
 Frequencies --   3368.6432              3437.1484              3564.2714
 Red. masses --      1.0693                 1.0672                 1.0627
 Frc consts  --      7.1490                 7.4284                 7.9543
 IR Inten    --    701.2865               461.1679               552.6693

                     79                     80                     81
                      A                      A                      A
 Frequencies --   3583.3698              3597.8984              3746.5288
 Red. masses --      1.0616                 1.0551                 1.0667
 Frc consts  --      8.0313                 8.0471                 8.8220
 IR Inten    --    266.8579               420.8462                19.4320

                     82                     83                     84
                      A                      A                      A
 Frequencies --   3747.4546              3794.2979              3797.6494
 Red. masses --      1.0665                 1.0715                 1.0710
 Frc consts  --      8.8240                 9.0891                 9.1008
 IR Inten    --     25.0253                78.3623                64.8038

 - Thermochemistry -
 -------------------
 Temperature   298.150 Kelvin.  Pressure   1.00000 Atm.
 Atom     1 has atomic number  8 and mass  15.99491

 Molecular mass:   216.08452 amu.
 Principal axes and moments of inertia in atomic units:
                           1         2         3
     Eigenvalues --  2841.038843251.722944711.39336
           X            0.99999  -0.00418  -0.00021
           Y            0.00418   0.99999  -0.00185
           Z            0.00022   0.00185   1.00000
 This molecule is an asymmetric top.
 Rotational symmetry number  1.
 Warning -- assumption of classical behavior for rotation
           may cause significant error
 Rotational temperatures (Kelvin)      0.03049     0.02664     0.01838
 Rotational constants (GHZ):           0.63524     0.55501     0.38306
 Zero-point vibrational energy     645435.7 (Joules/Mol)
                                  154.26284 (Kcal/Mol)
 Warning -- explicit consideration of  31 degrees of freedom as
           vibrations may cause significant error
 Vibrational temperatures:     27.72    53.81    84.72   100.67   141.70
          (Kelvin)            200.68   225.39   232.75   264.60   281.69
                              294.99   312.08   316.36   336.41   394.28
                              405.42   421.47   424.36   438.30   464.15
                              471.13   520.43   528.57   572.12   634.77
                              659.52   696.20   724.47   803.78   843.50
                              858.52   927.18  1020.89  1085.61  1116.42
                             1300.60  1347.58  1356.46  1431.57  1457.17
                             1493.32  1513.46  1552.76  1575.53  1582.86
                             1606.39  1618.79  1659.76  1717.19  1800.06
                             1830.25  1855.20  1919.13  1928.26  1948.75
                             1982.83  2002.23  2041.96  2049.43  2061.16
                             2089.15  2114.97  2149.12  2158.37  2201.51
                             2470.04  2479.93  2626.71  4239.66  4262.63
                             4278.84  4302.57  4412.64  4450.36  4544.43
                             4846.72  4945.28  5128.19  5155.66  5176.57
                             5390.41  5391.74  5459.14  5463.96

 Zero-point correction=                           0.245833 (Hartree/Particle)
 Thermal correction to Energy=                    0.264422
 Thermal correction to Enthalpy=                  0.265366
 Thermal correction to Gibbs Free Energy=         0.199425
 Sum of electronic and zero-point Energies=           -839.738172
 Sum of electronic and thermal Energies=              -839.719584
 Sum of electronic and thermal Enthalpies=            -839.718640
 Sum of electronic and thermal Free Energies=         -839.784580

                     E (Thermal)             CV                S
                      KCal/Mol        Cal/Mol-Kelvin    Cal/Mol-Kelvin
 Total                  165.927             66.901            138.784
 Electronic               0.000              0.000              0.000
 Translational            0.889              2.981             42.015
 Rotational               0.889              2.981             32.143
 Vibrational            164.150             60.939             64.626
 Vibration     1          0.593              1.986              6.709
 Vibration     2          0.594              1.982              5.392
 Vibration     3          0.596              1.974              4.494
 Vibration     4          0.598              1.968              4.154
 Vibration     5          0.604              1.950              3.484
 Vibration     6          0.615              1.914              2.811
 Vibration     7          0.620              1.895              2.590
 Vibration     8          0.622              1.889              2.529
 Vibration     9          0.631              1.862              2.288
 Vibration    10          0.636              1.846              2.172
 Vibration    11          0.640              1.833              2.087
 Vibration    12          0.646              1.815              1.985
 Vibration    13          0.647              1.811              1.960
 Vibration    14          0.654              1.789              1.849
 Vibration    15          0.676              1.721              1.571
 Vibration    16          0.681              1.707              1.523
 Vibration    17          0.688              1.687              1.457
 Vibration    18          0.689              1.683              1.445
 Vibration    19          0.696              1.665              1.391
 Vibration    20          0.708              1.630              1.297
 Vibration    21          0.711              1.621              1.273
 Vibration    22          0.736              1.551              1.115
 Vibration    23          0.740              1.539              1.091
 Vibration    24          0.764              1.475              0.971
 Vibration    25          0.801              1.380              0.823
 Vibration    26          0.816              1.342              0.771
 Vibration    27          0.840              1.286              0.700
 Vibration    28          0.859              1.242              0.649
 Vibration    29          0.914              1.121              0.527
 Vibration    30          0.943              1.061              0.474
 Vibration    31          0.955              1.039              0.455

 Normal termination of Gaussian 09 at Mon Jan 16 01:25:12 2017.
