 Gaussian 09, Revision E.01,
 Gaussian 09:  ES64L-G09RevE.01 30-Nov-2015

 -------------------------
 # b3lyp/6-31g(d) opt freq
 -------------------------

 -----------------------------------
 glo_2w_alpha_ircf_boat5_B3LYP_631Gd
 -----------------------------------
 Symbolic Z-matrix:
 Charge =  0 Multiplicity = 1

 SCF Done:  E(RB3LYP) =  -839.943629193     A.U. after   14 cycles
 SCF Done:  E(RB3LYP) =  -839.946860193     A.U. after   14 cycles
 SCF Done:  E(RB3LYP) =  -839.954605077     A.U. after   13 cycles
 SCF Done:  E(RB3LYP) =  -839.962953660     A.U. after   13 cycles
 SCF Done:  E(RB3LYP) =  -839.968563105     A.U. after   13 cycles
 SCF Done:  E(RB3LYP) =  -839.969971829     A.U. after   12 cycles
 SCF Done:  E(RB3LYP) =  -839.970344608     A.U. after   13 cycles
 SCF Done:  E(RB3LYP) =  -839.971708093     A.U. after   13 cycles
 SCF Done:  E(RB3LYP) =  -839.972877154     A.U. after   13 cycles
 SCF Done:  E(RB3LYP) =  -839.973482614     A.U. after   13 cycles
 SCF Done:  E(RB3LYP) =  -839.990511322     A.U. after   11 cycles
 SCF Done:  E(RB3LYP) =  -839.990524030     A.U. after    9 cycles
 SCF Done:  E(RB3LYP) =  -839.990529459     A.U. after    8 cycles
 SCF Done:  E(RB3LYP) =  -839.990534245     A.U. after    8 cycles
 SCF Done:  E(RB3LYP) =  -839.990536969     A.U. after    8 cycles
 SCF Done:  E(RB3LYP) =  -839.990538475     A.U. after    8 cycles
 SCF Done:  E(RB3LYP) =  -839.990539207     A.U. after    8 cycles
 SCF Done:  E(RB3LYP) =  -839.990539523     A.U. after    7 cycles
 SCF Done:  E(RB3LYP) =  -839.990539602     A.U. after    7 cycles
 Optimization completed.
    -- Stationary point found.
 Normal termination of Gaussian 09 at Sun Jan 15 22:27:54 2017.

 --------------------------------------------------------------------
 #N Geom=AllCheck Guess=TCheck SCRF=Check GenChk RB3LYP/6-31G(d) Freq
 --------------------------------------------------------------------

 Structure from the checkpoint file:  "/scratch/10464853.yak.local/Gau-25005.chk"
 -----------------------------------
 glo_2w_alpha_ircf_boat5_B3LYP_631Gd
 -----------------------------------
 Charge =  0 Multiplicity = 1

                         Standard orientation:
 ---------------------------------------------------------------------
 Center     Atomic      Atomic             Coordinates (Angstroms)
 Number     Number       Type             X           Y           Z
 ---------------------------------------------------------------------
      1          8           0       -0.322935   -1.435943   -1.234930
      2          6           0       -0.858191   -0.295407    0.922702
      3          6           0        0.130174    1.725918   -0.482795
      4          6           0       -0.900694    1.208718    0.566840
      5          6           0        1.442663    0.984769   -0.430669
      6          6           0       -1.237777   -1.344824   -0.150125
      7          1           0       -0.612626    1.726343    1.495777
      8          1           0       -1.261833   -2.310363    0.387973
      9          1           0       -1.608246   -0.420520    1.721607
     10          1           0       -0.306077    1.548437   -1.475619
     11          6           0       -2.614447   -1.114838   -0.791745
     12          1           0       -2.895410   -2.008638   -1.363820
     13          1           0       -2.548751   -0.273751   -1.482476
     14          8           0       -3.633720   -0.761550    0.148556
     15          1           0       -3.781187   -1.512864    0.744051
     16          8           0        0.341182    3.110882   -0.314535
     17          1           0        1.225071    3.197306    0.088464
     18          8           0       -2.178262    1.642388    0.137082
     19          1           0       -2.853756    1.029779    0.482062
     20          8           0        0.430269   -0.530184    1.480986
     21          1           0        0.808531   -1.376886    1.163926
     22          1           0        1.442321   -0.032117   -0.833711
     23          8           0        2.474177    1.515660   -0.030900
     24          1           0        2.674486   -1.954179    0.076402
     25          8           0        1.854339   -2.519730    0.145686
     26          1           0        2.144288   -3.377468    0.489285
     27          1           0        0.424981   -1.999437   -0.950403
     28          8           0        3.957809   -0.833283   -0.026270
     29          1           0        4.395451   -0.806983   -0.890476
     30          1           0        3.599507    0.079390    0.096311
 ---------------------------------------------------------------------

 SCF Done:  E(RB3LYP) =  -839.990539602     A.U. after    1 cycles

 The electronic state is 1-A.
 Alpha  occ. eigenvalues --  -19.17656 -19.17203 -19.17105 -19.17077 -19.14934
 Alpha  occ. eigenvalues --  -19.14307 -19.13206 -19.12846 -10.28501 -10.24812
 Alpha  occ. eigenvalues --  -10.23948 -10.23923 -10.23581 -10.23342  -1.06726
 Alpha  occ. eigenvalues --   -1.04469  -1.03778  -1.02848  -1.01835  -1.01495
 Alpha  occ. eigenvalues --   -1.00790  -0.99702  -0.77203  -0.74808  -0.69473
 Alpha  occ. eigenvalues --   -0.64174  -0.60963  -0.56728  -0.55996  -0.54908
 Alpha  occ. eigenvalues --   -0.54093  -0.52783  -0.51604  -0.49658  -0.48919
 Alpha  occ. eigenvalues --   -0.47827  -0.46110  -0.44689  -0.43506  -0.43425
 Alpha  occ. eigenvalues --   -0.42562  -0.41099  -0.39887  -0.39490  -0.37402
 Alpha  occ. eigenvalues --   -0.36416  -0.35149  -0.34613  -0.33907  -0.33388
 Alpha  occ. eigenvalues --   -0.32887  -0.32442  -0.29976  -0.28749  -0.28204
 Alpha  occ. eigenvalues --   -0.26206  -0.25285  -0.24746
 Alpha virt. eigenvalues --   -0.03136   0.03368   0.04597   0.06967   0.09810
 Alpha virt. eigenvalues --    0.11247   0.11869   0.12606   0.13060   0.14643
 Alpha virt. eigenvalues --    0.16359   0.16954   0.17853   0.18596   0.19779

 Mulliken charges:
               1
     1  O   -0.656320
     2  C    0.103176
     3  C    0.071761
     4  C    0.158336
     5  C    0.243697
     6  C    0.050147
     7  H    0.138812
     8  H    0.108800
     9  H    0.111636
    10  H    0.167056
    11  C   -0.065490
    12  H    0.143871
    13  H    0.190600
    14  O   -0.623136
    15  H    0.398653
    16  O   -0.630744
    17  H    0.403795
    18  O   -0.657144
    19  H    0.424874
    20  O   -0.679342
    21  H    0.429181
    22  H    0.132980
    23  O   -0.466485
    24  H    0.454842
    25  O   -0.839638
    26  H    0.408981
    27  H    0.440889
    28  O   -0.814638
    29  H    0.404157
    30  H    0.446694
 Sum of Mulliken charges =  -0.00000

 Dipole moment (field-independent basis, Debye):
    X=              1.7385    Y=             -6.5325    Z=              0.0225  Tot=              6.7599
 Quadrupole moment (field-independent basis, Debye-Ang):
   XX=            -75.8561   YY=            -81.3038   ZZ=            -84.3189
   XY=              3.8837   XZ=            -10.4703   YZ=             -1.5708

  Exact polarizability: 114.906   3.778 101.179  -1.899  -0.104  76.332
 Approx polarizability: 151.645   4.554 136.827  -0.262  -0.704 116.338

                      1                      2                      3
                      A                      A                      A
 Frequencies --     41.7015                57.7343                68.4147
 Red. masses --      5.9563                 6.0093                 7.1008
 Frc consts  --      0.0061                 0.0118                 0.0196
 IR Inten    --      0.8611                 2.4149                 2.2946

                      4                      5                      6
                      A                      A                      A
 Frequencies --     88.7899               125.7523               140.2536
 Red. masses --      6.6239                 6.6662                 6.7226
 Frc consts  --      0.0308                 0.0621                 0.0779
 IR Inten    --      0.5679                 8.8141                 1.1606

                      7                      8                      9
                      A                      A                      A
 Frequencies --    152.8373               175.3260               185.7023
 Red. masses --      4.6390                 4.0596                 6.3492
 Frc consts  --      0.0638                 0.0735                 0.1290
 IR Inten    --      2.7072                15.3877                 8.1452

                     10                     11                     12
                      A                      A                      A
 Frequencies --    189.9739               202.0032               213.1181
 Red. masses --      2.3666                 4.4382                 2.7264
 Frc consts  --      0.0503                 0.1067                 0.0730
 IR Inten    --      7.8419                16.8915                11.1911

                     13                     14                     15
                      A                      A                      A
 Frequencies --    225.4465               233.5382               283.2536
 Red. masses --      2.4584                 3.4606                 5.2231
 Frc consts  --      0.0736                 0.1112                 0.2469
 IR Inten    --     23.6603                 8.0561                 2.1732

                     16                     17                     18
                      A                      A                      A
 Frequencies --    292.1006               310.9735               321.3994
 Red. masses --      2.8551                 2.1476                 1.3962
 Frc consts  --      0.1435                 0.1224                 0.0850
 IR Inten    --     12.3302                48.7272                85.2141

                     19                     20                     21
                      A                      A                      A
 Frequencies --    336.9343               341.3828               348.2644
 Red. masses --      2.8161                 2.3798                 1.6812
 Frc consts  --      0.1884                 0.1634                 0.1201
 IR Inten    --     66.9764                16.1924               119.6155

                     22                     23                     24
                      A                      A                      A
 Frequencies --    386.7493               428.5724               440.3976
 Red. masses --      3.6769                 1.1021                 3.1392
 Frc consts  --      0.3240                 0.1193                 0.3587
 IR Inten    --     32.7319                19.7022                16.5245

                     25                     26                     27
                      A                      A                      A
 Frequencies --    455.4193               472.9793               494.7764
 Red. masses --      2.9202                 2.8779                 1.0645
 Frc consts  --      0.3568                 0.3793                 0.1535
 IR Inten    --     13.8278                 1.4630                31.4031

                     28                     29                     30
                      A                      A                      A
 Frequencies --    504.7632               566.9175               589.7133
 Red. masses --      5.1298                 2.0502                 1.5282
 Frc consts  --      0.7701                 0.3882                 0.3131
 IR Inten    --     11.4876               154.9798                56.1097

                     31                     32                     33
                      A                      A                      A
 Frequencies --    639.8712               743.4528               765.5624
 Red. masses --      1.1207                 2.8964                 2.7783
 Frc consts  --      0.2704                 0.9432                 0.9594
 IR Inten    --    235.7296                34.1001                41.1877

                     34                     35                     36
                      A                      A                      A
 Frequencies --    786.1837               803.8313               837.1760
 Red. masses --      1.4169                 1.7686                 1.4869
 Frc consts  --      0.5160                 0.6733                 0.6140
 IR Inten    --    118.3626               192.4401                48.0237

                     37                     38                     39
                      A                      A                      A
 Frequencies --    883.4635               953.1321               973.7531
 Red. masses --      1.9292                 1.1396                 2.9895
 Frc consts  --      0.8872                 0.6100                 1.6701
 IR Inten    --     35.1062               102.6708                50.2450

                     40                     41                     42
                      A                      A                      A
 Frequencies --    996.6931              1017.4072              1037.6629
 Red. masses --      1.7977                 2.0617                 2.7475
 Frc consts  --      1.0522                 1.2574                 1.7430
 IR Inten    --     48.8051                60.8397                47.4268

                     43                     44                     45
                      A                      A                      A
 Frequencies --   1084.0754              1092.6415              1119.3872
 Red. masses --      4.8204                 3.2529                 4.0147
 Frc consts  --      3.3377                 2.2881                 2.9639
 IR Inten    --     11.2397               147.0854                33.9819

                     46                     47                     48
                      A                      A                      A
 Frequencies --   1127.0883              1136.7645              1168.8528
 Red. masses --      3.3567                 3.0950                 3.3251
 Frc consts  --      2.5124                 2.3564                 2.6765
 IR Inten    --     12.7177                72.9416                14.6760

                     49                     50                     51
                      A                      A                      A
 Frequencies --   1187.4884              1266.7196              1285.7643
 Red. masses --      1.2216                 1.2841                 1.2253
 Frc consts  --      1.0149                 1.2140                 1.1935
 IR Inten    --     35.4417                41.4153                 6.2997

                     52                     53                     54
                      A                      A                      A
 Frequencies --   1316.6196              1330.5309              1349.3039
 Red. masses --      1.2055                 1.1495                 1.2019
 Frc consts  --      1.2313                 1.1990                 1.2893
 IR Inten    --     27.6606                21.6389                15.9654

                     55                     56                     57
                      A                      A                      A
 Frequencies --   1354.2258              1370.4681              1384.0182
 Red. masses --      1.1466                 1.1754                 1.2562
 Frc consts  --      1.2389                 1.3007                 1.4177
 IR Inten    --      8.9518                51.6129                35.3405

                     58                     59                     60
                      A                      A                      A
 Frequencies --   1403.1521              1417.2965              1430.1444
 Red. masses --      1.1926                 1.2867                 1.3243
 Frc consts  --      1.3834                 1.5229                 1.5958
 IR Inten    --     86.1855                23.5468                11.1892

                     61                     62                     63
                      A                      A                      A
 Frequencies --   1450.4319              1465.5054              1469.2068
 Red. masses --      1.3297                 1.4201                 1.4260
 Frc consts  --      1.6481                 1.7970                 1.8136
 IR Inten    --     55.0763                44.5926                 9.4078

                     64                     65                     66
                      A                      A                      A
 Frequencies --   1490.0400              1528.3687              1721.2343
 Red. masses --      1.3118                 1.0816                 1.0804
 Frc consts  --      1.7160                 1.4886                 1.8859
 IR Inten    --     24.8564                 3.4558               115.5843

                     67                     68                     69
                      A                      A                      A
 Frequencies --   1746.0676              1761.2074              2949.4948
 Red. masses --      1.1137                 6.5513                 1.0828
 Frc consts  --      2.0005                11.9728                 5.5499
 IR Inten    --      5.2887               220.2838                44.9702

                     70                     71                     72
                      A                      A                      A
 Frequencies --   2980.7299              3001.9097              3047.6792
 Red. masses --      1.0829                 1.0838                 1.0839
 Frc consts  --      5.6688                 5.7546                 5.9315
 IR Inten    --     80.2381                43.2517                18.5722

                     73                     74                     75
                      A                      A                      A
 Frequencies --   3053.2774              3137.4257              3163.7729
 Red. masses --      1.0710                 1.0883                 1.0960
 Frc consts  --      5.8825                 6.3120                 6.4637
 IR Inten    --     55.6697                16.1227                 8.7584

                     76                     77                     78
                      A                      A                      A
 Frequencies --   3248.1029              3460.9598              3547.9285
 Red. masses --      1.0650                 1.0604                 1.0689
 Frc consts  --      6.6200                 7.4836                 7.9274
 IR Inten    --    747.4463               645.0163               120.8858

                     79                     80                     81
                      A                      A                      A
 Frequencies --   3607.7000              3655.6255              3658.0357
 Red. masses --      1.0668                 1.0668                 1.0653
 Frc consts  --      8.1809                 8.3999                 8.3984
 IR Inten    --    614.9870               180.3906                18.5905

                     82                     83                     84
                      A                      A                      A
 Frequencies --   3743.0103              3799.5992              3805.3619
 Red. masses --      1.0664                 1.0680                 1.0668
 Frc consts  --      8.8024                 9.0842                 9.1020
 IR Inten    --     17.7806                68.9886                50.6938

 - Thermochemistry -
 -------------------
 Temperature   298.150 Kelvin.  Pressure   1.00000 Atm.
 Atom     1 has atomic number  8 and mass  15.99491

 Molecular mass:   216.08452 amu.
 Principal axes and moments of inertia in atomic units:
                           1         2         3
     Eigenvalues --  2330.249353706.073685283.10317
           X            0.99997  -0.00648  -0.00367
           Y            0.00648   0.99998   0.00167
           Z            0.00366  -0.00169   0.99999
 This molecule is an asymmetric top.
 Rotational symmetry number  1.
 Warning -- assumption of classical behavior for rotation
           may cause significant error
 Rotational temperatures (Kelvin)      0.03717     0.02337     0.01639
 Rotational constants (GHZ):           0.77448     0.48697     0.34161
 Zero-point vibrational energy     648559.0 (Joules/Mol)
                                  155.00932 (Kcal/Mol)
 Warning -- explicit consideration of  30 degrees of freedom as
           vibrations may cause significant error
 Vibrational temperatures:     60.00    83.07    98.43   127.75   180.93
          (Kelvin)            201.79   219.90   252.25   267.18   273.33
                              290.64   306.63   324.37   336.01   407.54
                              420.27   447.42   462.42   484.77   491.17
                              501.07   556.45   616.62   633.63   655.25
                              680.51   711.87   726.24   815.67   848.46
                              920.63  1069.66  1101.47  1131.14  1156.53
                             1204.51  1271.11  1371.34  1401.01  1434.02
                             1463.82  1492.96  1559.74  1572.07  1610.55
                             1621.63  1635.55  1681.72  1708.53  1822.52
                             1849.93  1894.32  1914.33  1941.34  1948.43
                             1971.80  1991.29  2018.82  2039.17  2057.66
                             2086.85  2108.53  2113.86  2143.83  2198.98
                             2476.47  2512.20  2533.98  4243.66  4288.60
                             4319.07  4384.93  4392.98  4514.05  4551.96
                             4673.29  4979.54  5104.67  5190.67  5259.62
                             5263.09  5385.35  5466.77  5475.06

 Zero-point correction=                           0.247023 (Hartree/Particle)
 Thermal correction to Energy=                    0.265000
 Thermal correction to Enthalpy=                  0.265944
 Thermal correction to Gibbs Free Energy=         0.202472
 Sum of electronic and zero-point Energies=           -839.743517
 Sum of electronic and thermal Energies=              -839.725540
 Sum of electronic and thermal Enthalpies=            -839.724595
 Sum of electronic and thermal Free Energies=         -839.788068

                     E (Thermal)             CV                S
                      KCal/Mol        Cal/Mol-Kelvin    Cal/Mol-Kelvin
 Total                  166.290             65.890            133.589
 Electronic               0.000              0.000              0.000
 Translational            0.889              2.981             42.015
 Rotational               0.889              2.981             32.190
 Vibrational            164.513             59.929             59.385
 Vibration     1          0.594              1.981              5.177
 Vibration     2          0.596              1.974              4.533
 Vibration     3          0.598              1.969              4.198
 Vibration     4          0.602              1.957              3.687
 Vibration     5          0.611              1.927              3.010
 Vibration     6          0.615              1.913              2.800
 Vibration     7          0.619              1.900              2.637
 Vibration     8          0.627              1.873              2.378
 Vibration     9          0.632              1.859              2.270
 Vibration    10          0.633              1.854              2.228
 Vibration    11          0.639              1.837              2.115
 Vibration    12          0.644              1.821              2.017
 Vibration    13          0.650              1.802              1.915
 Vibration    14          0.654              1.790              1.852
 Vibration    15          0.682              1.705              1.514
 Vibration    16          0.687              1.688              1.462
 Vibration    17          0.700              1.653              1.357
 Vibration    18          0.707              1.633              1.303
 Vibration    19          0.718              1.602              1.227
 Vibration    20          0.721              1.593              1.206
 Vibration    21          0.726              1.579              1.174
 Vibration    22          0.755              1.498              1.013
 Vibration    23          0.790              1.408              0.863
 Vibration    24          0.800              1.382              0.825
 Vibration    25          0.814              1.349              0.780
 Vibration    26          0.830              1.310              0.729
 Vibration    27          0.850              1.262              0.671
 Vibration    28          0.860              1.239              0.646
 Vibration    29          0.923              1.103              0.510
 Vibration    30          0.947              1.054              0.468

 Normal termination of Gaussian 09 at Sun Jan 15 23:01:11 2017.
