 Gaussian 09, Revision E.01,
 Gaussian 09:  ES64L-G09RevE.01 30-Nov-2015

 -------------------------------------
 # b3lyp/6-31g(d) irc=(calcfc,forward)
 -------------------------------------

 --------------------------------
 glo_2w_beta_ts_boat6_B3LYP_631Gd
 --------------------------------
 Symbolic Z-matrix:
 Charge =  0 Multiplicity = 1

 SCF Done:  E(RB3LYP) =  -839.961913228     A.U. after   14 cycles
 SCF Done:  E(RB3LYP) =  -839.961975915     A.U. after   11 cycles
 SCF Done:  E(RB3LYP) =  -839.961980985     A.U. after    9 cycles
 SCF Done:  E(RB3LYP) =  -839.962259197     A.U. after   11 cycles
 SCF Done:  E(RB3LYP) =  -839.962296808     A.U. after   10 cycles
 SCF Done:  E(RB3LYP) =  -839.963132354     A.U. after   11 cycles
 SCF Done:  E(RB3LYP) =  -839.963204036     A.U. after   10 cycles
 SCF Done:  E(RB3LYP) =  -839.965057664     A.U. after   11 cycles
 SCF Done:  E(RB3LYP) =  -839.965116411     A.U. after   10 cycles
 SCF Done:  E(RB3LYP) =  -839.968118389     A.U. after   12 cycles
 SCF Done:  E(RB3LYP) =  -839.968203903     A.U. after   10 cycles
 SCF Done:  E(RB3LYP) =  -839.972290464     A.U. after   12 cycles
 SCF Done:  E(RB3LYP) =  -839.972357268     A.U. after   10 cycles
 SCF Done:  E(RB3LYP) =  -839.976855122     A.U. after   12 cycles
 SCF Done:  E(RB3LYP) =  -839.980336357     A.U. after   12 cycles
 SCF Done:  E(RB3LYP) =  -839.980433828     A.U. after   10 cycles
 SCF Done:  E(RB3LYP) =  -839.982663631     A.U. after   11 cycles
 SCF Done:  E(RB3LYP) =  -839.982712630     A.U. after   10 cycles
 SCF Done:  E(RB3LYP) =  -839.984539299     A.U. after   11 cycles
 SCF Done:  E(RB3LYP) =  -839.984555523     A.U. after   10 cycles

                          Input orientation:
 ---------------------------------------------------------------------
 Center     Atomic      Atomic             Coordinates (Angstroms)
 Number     Number       Type             X           Y           Z
 ---------------------------------------------------------------------
      1          6           0       -1.119628    0.735963   -0.196797
      2          6           0       -0.443795   -1.502243    0.842743
      3          6           0       -1.365881   -0.259333    0.959088
      4          6           0       -0.210071   -1.803639   -0.649469
      5          1           0        0.369766   -2.727915   -0.759823
      6          1           0       -0.964579   -2.347291    1.318655
      7          1           0       -1.779497    0.471796   -1.029206
      8          1           0       -1.187155    0.216701    1.933495
      9          6           0        0.687595   -0.654916   -1.194471
     10          1           0        0.609453   -0.562702   -2.283965
     11          8           0        0.244389    0.649766   -0.645684
     12          6           0       -1.448675    2.165723    0.214894
     13          1           0       -2.435812    2.133194    0.704502
     14          1           0       -0.711540    2.515784    0.954396
     15          8           0       -1.464001    2.980049   -0.944640
     16          1           0       -1.642086    3.891155   -0.667710
     17          8           0        1.981865   -0.930681   -0.774674
     18          8           0       -1.423947   -1.948483   -1.370103
     19          1           0       -2.165912   -1.681842   -0.797328
     20          8           0        0.798962   -1.304006    1.511746
     21          1           0        1.498765   -1.335068    0.813632
     22          8           0       -2.744437   -0.648500    0.833326
     23          1           0       -2.980550   -1.185773    1.607162
     24          8           0        1.782285    1.267183    1.331843
     25          1           0        3.074113    1.067972    0.585368
     26          1           0        1.513503    0.445792    1.788607
     27          1           0        1.201016    1.237875    0.534119
     28          8           0        3.660125    0.781061   -0.184440
     29          1           0        2.651410   -0.161678   -0.763792
     30          1           0        4.398775    0.283698    0.196443
 ---------------------------------------------------------------------

 Alpha  occ. eigenvalues --  -19.18697 -19.17318 -19.15541 -19.15016 -19.15005
 Alpha  occ. eigenvalues --  -19.14970 -19.13876 -19.13643 -10.29541 -10.26121
 Alpha  occ. eigenvalues --  -10.25695 -10.25367 -10.24911 -10.24338  -1.07906
 Alpha  occ. eigenvalues --   -1.05548  -1.03149  -1.02458  -1.02293  -1.01388
 Alpha  occ. eigenvalues --   -1.00924  -0.98130  -0.79197  -0.76902  -0.70539
 Alpha  occ. eigenvalues --   -0.65639  -0.63325  -0.58469  -0.56551  -0.55808
 Alpha  occ. eigenvalues --   -0.53893  -0.53508  -0.52271  -0.50680  -0.49386
 Alpha  occ. eigenvalues --   -0.48826  -0.47457  -0.45750  -0.43614  -0.42527
 Alpha  occ. eigenvalues --   -0.42170  -0.41394  -0.40523  -0.40148  -0.39056
 Alpha  occ. eigenvalues --   -0.37567  -0.36394  -0.35502  -0.34256  -0.33611
 Alpha  occ. eigenvalues --   -0.31607  -0.30357  -0.29531  -0.29105  -0.27898
 Alpha  occ. eigenvalues --   -0.27647  -0.27421  -0.25920
 Alpha virt. eigenvalues --    0.03960   0.06215   0.07372   0.08758   0.09263
 Alpha virt. eigenvalues --    0.10694   0.12439   0.12731   0.14361   0.14386
 Alpha virt. eigenvalues --    0.15481   0.16624   0.17334   0.17880   0.19052

 Mulliken charges:
               1
     1  C    0.147285
     2  C    0.109810
     3  C    0.034754
     4  C    0.063771
     5  H    0.160865
     6  H    0.127038
     7  H    0.175676
     8  H    0.150180
     9  C    0.360644
    10  H    0.157852
    11  O   -0.566852
    12  C   -0.061522
    13  H    0.139636
    14  H    0.144593
    15  O   -0.611756
    16  H    0.398632
    17  O   -0.690251
    18  O   -0.655592
    19  H    0.420480
    20  O   -0.681845
    21  H    0.430506
    22  O   -0.629751
    23  H    0.405961
    24  O   -0.865672
    25  H    0.441325
    26  H    0.415369
    27  H    0.453083
    28  O   -0.823439
    29  H    0.454555
    30  H    0.394665
 Sum of Mulliken charges =  -0.00000

 Dipole moment (field-independent basis, Debye):
    X=             -1.8755    Y=             -0.4410    Z=              3.3400  Tot=              3.8558
 Quadrupole moment (field-independent basis, Debye-Ang):
   XX=            -77.1904   YY=            -80.5237   ZZ=            -87.2617
   XY=             -5.9273   XZ=             -5.6906   YZ=             -1.6361

  Exact polarizability:   0.000   0.000   0.000   0.000   0.000   0.000
 Approx polarizability: 140.731   0.320 123.678   0.706   1.351 125.960

 Normal termination of Gaussian 09 at Sat Jan 14 01:34:25 2017.
