 Gaussian 09, Revision E.01,
 Gaussian 09:  ES64L-G09RevE.01 30-Nov-2015

 -------------------------------------
 # b3lyp/6-31g(d) irc=(calcfc,reverse)
 -------------------------------------

 --------------------------------
 glo_1w_beta_ts_boat6_B3LYP_631Gd
 --------------------------------
 Symbolic Z-matrix:
 Charge =  0 Multiplicity = 1

 SCF Done:  E(RB3LYP) =  -839.956885607     A.U. after   14 cycles
 SCF Done:  E(RB3LYP) =  -839.957274026     A.U. after   11 cycles
 SCF Done:  E(RB3LYP) =  -839.958519035     A.U. after   11 cycles
 SCF Done:  E(RB3LYP) =  -839.960626874     A.U. after   11 cycles
 SCF Done:  E(RB3LYP) =  -839.963454510     A.U. after   11 cycles
 SCF Done:  E(RB3LYP) =  -839.966732016     A.U. after   11 cycles
 SCF Done:  E(RB3LYP) =  -839.970067218     A.U. after   11 cycles
 SCF Done:  E(RB3LYP) =  -839.973011010     A.U. after   11 cycles
 SCF Done:  E(RB3LYP) =  -839.975351705     A.U. after   11 cycles
 SCF Done:  E(RB3LYP) =  -839.977298236     A.U. after   11 cycles
 SCF Done:  E(RB3LYP) =  -839.979021667     A.U. after   11 cycles

                          Input orientation:
 ---------------------------------------------------------------------
 Center     Atomic      Atomic             Coordinates (Angstroms)
 Number     Number       Type             X           Y           Z
 ---------------------------------------------------------------------
      1          6           0        0.871809    0.745192   -0.557709
      2          6           0       -1.426518   -0.380705   -0.553999
      3          6           0       -0.574258    0.822454   -0.056871
      4          6           0       -0.581176   -1.584899   -1.023323
      5          1           0       -1.221324   -2.478826   -0.990303
      6          1           0       -2.045712   -0.027768   -1.386339
      7          1           0        0.896620    0.769828   -1.650652
      8          1           0       -0.541032    0.745220    1.042726
      9          6           0        0.565996   -1.761508   -0.039339
     10          1           0        1.268500   -2.547800   -0.333927
     11          8           0        1.464866   -0.512435   -0.139493
     12          6           0        1.702205    1.915036   -0.033436
     13          1           0        1.221808    2.834317   -0.391783
     14          1           0        1.667220    1.932317    1.071246
     15          8           0        3.032302    1.776305   -0.508063
     16          1           0        3.515723    2.582825   -0.274775
     17          8           0        0.073238   -1.914437    1.238550
     18          8           0       -0.007020   -1.404776   -2.309856
     19          1           0       -0.730360   -1.381283   -2.955212
     20          8           0       -2.328614   -0.826271    0.470345
     21          1           0       -1.746911   -1.268695    1.124864
     22          8           0       -1.120867    2.062023   -0.452701
     23          1           0       -1.970327    2.153456    0.039643
     24          8           0        2.036675   -0.866741    2.188605
     25          1           0        0.830696   -1.647304    1.861857
     26          1           0        1.811620   -0.133633    2.780065
     27          1           0        2.047208   -0.497808    1.256876
     28          8           0       -3.416072    1.651842    1.039091
     29          1           0       -4.241958    1.729425    0.538346
     30          1           0       -3.194510    0.692328    1.007353
 ---------------------------------------------------------------------

 Alpha  occ. eigenvalues --  -19.16494 -19.16487 -19.16264 -19.15011 -19.14969
 Alpha  occ. eigenvalues --  -19.14903 -19.14492 -19.12942 -10.29755 -10.25250
 Alpha  occ. eigenvalues --  -10.24584 -10.23817 -10.23774 -10.23456  -1.07392
 Alpha  occ. eigenvalues --   -1.04098  -1.03369  -1.02180  -1.01126  -1.00548
 Alpha  occ. eigenvalues --   -1.00196  -0.99404  -0.77620  -0.76867  -0.69627
 Alpha  occ. eigenvalues --   -0.64479  -0.62315  -0.57423  -0.56197  -0.54713
 Alpha  occ. eigenvalues --   -0.53642  -0.52422  -0.51798  -0.50825  -0.49868
 Alpha  occ. eigenvalues --   -0.47479  -0.46345  -0.45366  -0.43655  -0.41514
 Alpha  occ. eigenvalues --   -0.41150  -0.40790  -0.40198  -0.39524  -0.38297
 Alpha  occ. eigenvalues --   -0.37540  -0.36196  -0.34718  -0.34117  -0.31916
 Alpha  occ. eigenvalues --   -0.31098  -0.30280  -0.29447  -0.28701  -0.28265
 Alpha  occ. eigenvalues --   -0.27222  -0.26846  -0.24893
 Alpha virt. eigenvalues --    0.04869   0.05345   0.06700   0.06890   0.09220
 Alpha virt. eigenvalues --    0.10900   0.12553   0.13072   0.14048   0.15044
 Alpha virt. eigenvalues --    0.15831   0.16727   0.17516   0.18143   0.19110

 Mulliken charges:
               1
     1  C    0.140561
     2  C    0.077548
     3  C    0.120868
     4  C    0.062050
     5  H    0.151619
     6  H    0.139748
     7  H    0.170318
     8  H    0.104833
     9  C    0.356077
    10  H    0.161030
    11  O   -0.592456
    12  C   -0.053102
    13  H    0.166355
    14  H    0.094211
    15  O   -0.612846
    16  H    0.395777
    17  O   -0.676351
    18  O   -0.612275
    19  H    0.401131
    20  O   -0.670662
    21  H    0.432181
    22  O   -0.681331
    23  H    0.427788
    24  O   -0.827135
    25  H    0.450910
    26  H    0.397415
    27  H    0.463853
    28  O   -0.814525
    29  H    0.394815
    30  H    0.431595
 Sum of Mulliken charges =  -0.00000

 Dipole moment (field-independent basis, Debye):
    X=             -2.1804    Y=              0.8458    Z=             -0.2160  Tot=              2.3487
 Quadrupole moment (field-independent basis, Debye-Ang):
   XX=            -80.4403   YY=            -82.4698   ZZ=            -79.6651
   XY=              9.3881   XZ=              9.1536   YZ=              4.9228

  Exact polarizability:   0.000   0.000   0.000   0.000   0.000   0.000
 Approx polarizability: 131.816   1.911 129.842  -1.678  -3.469 129.473

 Normal termination of Gaussian 09 at Sat Jan 14 01:10:36 2017.
