 Gaussian 09, Revision E.01,
 Gaussian 09:  ES64L-G09RevE.01 30-Nov-2015

 -------------------------------------
 # b3lyp/6-31g(d) irc=(calcfc,reverse)
 -------------------------------------

 --------------------------------
 glo_2w_beta_ts_boat6_B3LYP_631Gd
 --------------------------------
 Symbolic Z-matrix:
 Charge =  0 Multiplicity = 1

 SCF Done:  E(RB3LYP) =  -839.961913228     A.U. after   14 cycles
 SCF Done:  E(RB3LYP) =  -839.961953848     A.U. after   11 cycles
 SCF Done:  E(RB3LYP) =  -839.961957541     A.U. after    9 cycles
 SCF Done:  E(RB3LYP) =  -839.962066002     A.U. after   11 cycles
 SCF Done:  E(RB3LYP) =  -839.962073050     A.U. after    9 cycles
 SCF Done:  E(RB3LYP) =  -839.962256886     A.U. after   11 cycles
 SCF Done:  E(RB3LYP) =  -839.962265113     A.U. after    9 cycles
 SCF Done:  E(RB3LYP) =  -839.962561150     A.U. after   11 cycles
 SCF Done:  E(RB3LYP) =  -839.962581190     A.U. after   10 cycles
 SCF Done:  E(RB3LYP) =  -839.963095037     A.U. after   11 cycles
 SCF Done:  E(RB3LYP) =  -839.963141026     A.U. after   10 cycles
 SCF Done:  E(RB3LYP) =  -839.963155962     A.U. after    9 cycles
 SCF Done:  E(RB3LYP) =  -839.964058794     A.U. after   12 cycles
 SCF Done:  E(RB3LYP) =  -839.964103274     A.U. after   10 cycles
 SCF Done:  E(RB3LYP) =  -839.965222774     A.U. after   12 cycles
 SCF Done:  E(RB3LYP) =  -839.965261578     A.U. after   10 cycles
 SCF Done:  E(RB3LYP) =  -839.966250972     A.U. after   12 cycles
 SCF Done:  E(RB3LYP) =  -839.966308247     A.U. after   11 cycles
 SCF Done:  E(RB3LYP) =  -839.967302020     A.U. after   11 cycles
 SCF Done:  E(RB3LYP) =  -839.968283231     A.U. after   11 cycles

                          Input orientation:
 ---------------------------------------------------------------------
 Center     Atomic      Atomic             Coordinates (Angstroms)
 Number     Number       Type             X           Y           Z
 ---------------------------------------------------------------------
      1          6           0       -1.124013    0.767250   -0.161409
      2          6           0       -0.448333   -1.500239    0.844025
      3          6           0       -1.366787   -0.255573    0.969483
      4          6           0       -0.225610   -1.824405   -0.647008
      5          1           0        0.315666   -2.776430   -0.728267
      6          1           0       -0.977145   -2.338558    1.324415
      7          1           0       -1.729060    0.484071   -1.025131
      8          1           0       -1.195251    0.204228    1.953380
      9          6           0        0.771486   -0.793907   -1.225925
     10          1           0        0.596766   -0.531180   -2.279125
     11          8           0        0.237707    0.718621   -0.599751
     12          6           0       -1.476945    2.188469    0.232905
     13          1           0       -2.471790    2.165240    0.706800
     14          1           0       -0.750123    2.548083    0.977681
     15          8           0       -1.467765    2.981537   -0.941740
     16          1           0       -1.620868    3.902105   -0.681667
     17          8           0        1.967919   -0.964533   -0.796845
     18          8           0       -1.436215   -1.939470   -1.373050
     19          1           0       -2.179582   -1.687916   -0.795966
     20          8           0        0.797185   -1.311129    1.508258
     21          1           0        1.489612   -1.355068    0.789212
     22          8           0       -2.743973   -0.643293    0.830033
     23          1           0       -2.988485   -1.177100    1.603377
     24          8           0        1.718590    1.262621    1.300758
     25          1           0        2.631795    1.171594    0.886926
     26          1           0        1.542941    0.424390    1.776719
     27          1           0        0.899096    1.010344    0.188632
     28          8           0        3.751489    0.804197   -0.199136
     29          1           0        3.171697    0.142483   -0.671396
     30          1           0        4.499932    0.286285    0.132721
 ---------------------------------------------------------------------

 Alpha  occ. eigenvalues --  -19.18841 -19.18738 -19.15366 -19.15211 -19.15174
 Alpha  occ. eigenvalues --  -19.14758 -19.14163 -19.10996 -10.28441 -10.26351
 Alpha  occ. eigenvalues --  -10.25714 -10.25650 -10.24417 -10.24361  -1.07797
 Alpha  occ. eigenvalues --   -1.05617  -1.03410  -1.02391  -1.02119  -1.01409
 Alpha  occ. eigenvalues --   -1.00232  -0.98453  -0.79289  -0.75786  -0.70133
 Alpha  occ. eigenvalues --   -0.65384  -0.62080  -0.59974  -0.56528  -0.54594
 Alpha  occ. eigenvalues --   -0.53590  -0.52874  -0.51981  -0.51031  -0.49254
 Alpha  occ. eigenvalues --   -0.48518  -0.47812  -0.44636  -0.43575  -0.43045
 Alpha  occ. eigenvalues --   -0.41899  -0.41523  -0.40851  -0.40097  -0.38913
 Alpha  occ. eigenvalues --   -0.38461  -0.36691  -0.35272  -0.34447  -0.33932
 Alpha  occ. eigenvalues --   -0.31186  -0.30497  -0.30017  -0.28471  -0.27722
 Alpha  occ. eigenvalues --   -0.27576  -0.26752  -0.23681
 Alpha virt. eigenvalues --    0.03682   0.04411   0.06774   0.07379   0.09428
 Alpha virt. eigenvalues --    0.10085   0.10722   0.12650   0.14254   0.14613
 Alpha virt. eigenvalues --    0.15483   0.15974   0.17366   0.18131   0.19672

 Mulliken charges:
               1
     1  C    0.134431
     2  C    0.106425
     3  C    0.034537
     4  C    0.065358
     5  H    0.161307
     6  H    0.125249
     7  H    0.187658
     8  H    0.150136
     9  C    0.335902
    10  H    0.152020
    11  O   -0.624114
    12  C   -0.059091
    13  H    0.138694
    14  H    0.149365
    15  O   -0.611312
    16  H    0.399331
    17  O   -0.626424
    18  O   -0.657383
    19  H    0.418717
    20  O   -0.685799
    21  H    0.422987
    22  O   -0.629749
    23  H    0.407205
    24  O   -0.848207
    25  H    0.442628
    26  H    0.419704
    27  H    0.475440
    28  O   -0.818120
    29  H    0.437880
    30  H    0.395226
 Sum of Mulliken charges =  -0.00000

 Dipole moment (field-independent basis, Debye):
    X=             -2.0425    Y=             -0.0999    Z=              3.6497  Tot=              4.1835
 Quadrupole moment (field-independent basis, Debye-Ang):
   XX=            -76.6965   YY=            -80.3704   ZZ=            -86.9185
   XY=             -5.3495   XZ=             -5.2282   YZ=             -1.4982

  Exact polarizability:   0.000   0.000   0.000   0.000   0.000   0.000
 Approx polarizability: 148.089  -2.308 126.723   2.378   1.266 128.547

 Normal termination of Gaussian 09 at Sat Jan 14 01:38:37 2017.
