 Gaussian 09, Revision E.01,
 Gaussian 09:  ES64L-G09RevE.01 30-Nov-2015

 -------------------------------------
 # b3lyp/6-31g(d) irc=(calcfc,reverse)
 -------------------------------------

 ---------------------------------
 glo_1w_alpha_ts_boat6_B3LYP_631Gd
 ---------------------------------
 Symbolic Z-matrix:
 Charge =  0 Multiplicity = 1

 SCF Done:  E(RB3LYP) =  -839.961446244     A.U. after   14 cycles
 SCF Done:  E(RB3LYP) =  -839.961673600     A.U. after   11 cycles
 SCF Done:  E(RB3LYP) =  -839.962304414     A.U. after   12 cycles
 SCF Done:  E(RB3LYP) =  -839.963171618     A.U. after   12 cycles
 SCF Done:  E(RB3LYP) =  -839.964082790     A.U. after   12 cycles
 SCF Done:  E(RB3LYP) =  -839.964981057     A.U. after   11 cycles
 SCF Done:  E(RB3LYP) =  -839.965854009     A.U. after   11 cycles
 SCF Done:  E(RB3LYP) =  -839.966709948     A.U. after   11 cycles
 SCF Done:  E(RB3LYP) =  -839.967547779     A.U. after   11 cycles
 SCF Done:  E(RB3LYP) =  -839.968357438     A.U. after   11 cycles
 SCF Done:  E(RB3LYP) =  -839.968369140     A.U. after   10 cycles
 SCF Done:  E(RB3LYP) =  -839.969171326     A.U. after   11 cycles

                          Input orientation:
 ---------------------------------------------------------------------
 Center     Atomic      Atomic             Coordinates (Angstroms)
 Number     Number       Type             X           Y           Z
 ---------------------------------------------------------------------
      1          6           0       -0.450327    0.882633    0.135613
      2          6           0        1.490334   -0.753782    0.069088
      3          6           0        1.057467    0.742580   -0.049347
      4          6           0        0.369785   -1.779797    0.346963
      5          1           0        0.788123   -2.770389    0.092784
      6          1           0        2.156633   -0.823341    0.931818
      7          1           0       -0.754635    0.481509    1.107855
      8          1           0        1.266764    1.051604   -1.089244
      9          6           0       -0.953599   -1.679041   -0.443407
     10          8           0       -0.979767    0.065571   -0.926422
     11          6           0       -0.969727    2.296742    0.001643
     12          1           0       -0.393994    2.942812    0.674029
     13          1           0       -0.832490    2.643552   -1.033010
     14          8           0       -2.360125    2.283591    0.359811
     15          1           0       -2.704895    3.183629    0.263161
     16          8           0        0.052597   -1.702272    1.718128
     17          1           0       -0.914467   -1.887492    1.734696
     18          8           0        2.302482   -1.148181   -1.055343
     19          1           0        1.790821   -0.989913   -1.865653
     20          8           0        1.728947    1.581725    0.858744
     21          1           0        2.675626    1.546303    0.593318
     22          8           0       -3.432652   -0.067192   -0.746022
     23          1           0       -3.232778   -0.913020   -0.265032
     24          1           0       -2.017964    0.158247   -0.986871
     25          1           0       -3.540639    0.627478   -0.070659
     26          8           0        4.152970    0.868218   -0.365545
     27          1           0        4.824843    0.480527    0.215238
     28          1           0        3.711068    0.097563   -0.783968
     29          8           0       -1.993256   -1.905059    0.235906
     30          1           0       -0.902037   -1.990516   -1.498728
 ---------------------------------------------------------------------

 Alpha  occ. eigenvalues --  -19.18433 -19.17948 -19.17451 -19.15599 -19.15341
 Alpha  occ. eigenvalues --  -19.13509 -19.13268 -19.11864 -10.28623 -10.24925
 Alpha  occ. eigenvalues --  -10.24807 -10.24775 -10.24593 -10.23872  -1.07399
 Alpha  occ. eigenvalues --   -1.04857  -1.04074  -1.02664  -1.01789  -1.01223
 Alpha  occ. eigenvalues --   -1.00696  -0.98953  -0.78529  -0.75684  -0.69383
 Alpha  occ. eigenvalues --   -0.65563  -0.61028  -0.57144  -0.55781  -0.54645
 Alpha  occ. eigenvalues --   -0.53874  -0.53663  -0.52237  -0.50680  -0.49259
 Alpha  occ. eigenvalues --   -0.47841  -0.47425  -0.45193  -0.43234  -0.43000
 Alpha  occ. eigenvalues --   -0.42092  -0.41694  -0.39858  -0.39783  -0.38162
 Alpha  occ. eigenvalues --   -0.37314  -0.36313  -0.35030  -0.34457  -0.33325
 Alpha  occ. eigenvalues --   -0.31591  -0.30784  -0.29921  -0.29775  -0.28425
 Alpha  occ. eigenvalues --   -0.26727  -0.25541  -0.24639
 Alpha virt. eigenvalues --    0.03116   0.04301   0.04678   0.07118   0.09329
 Alpha virt. eigenvalues --    0.09998   0.12424   0.13205   0.13630   0.14444
 Alpha virt. eigenvalues --    0.15043   0.16067   0.16986   0.17739   0.18909

 Mulliken charges:
               1
     1  C    0.084316
     2  C    0.079838
     3  C    0.141998
     4  C    0.076567
     5  H    0.141706
     6  H    0.174770
     7  H    0.177736
     8  H    0.110795
     9  C    0.304114
    10  O   -0.650882
    11  C   -0.059489
    12  H    0.174965
    13  H    0.137454
    14  O   -0.642817
    15  H    0.408865
    16  O   -0.650372
    17  H    0.414683
    18  O   -0.644893
    19  H    0.405294
    20  O   -0.670542
    21  H    0.429831
    22  O   -0.822634
    23  H    0.442127
    24  H    0.469406
    25  H    0.422429
    26  O   -0.811286
    27  H    0.399180
    28  H    0.429228
    29  O   -0.592432
    30  H    0.120045
 Sum of Mulliken charges =  -0.00000

 Dipole moment (field-independent basis, Debye):
    X=              0.7518    Y=              2.1169    Z=             -1.6384  Tot=              2.7804
 Quadrupole moment (field-independent basis, Debye-Ang):
   XX=            -80.3787   YY=            -79.5856   ZZ=            -86.3139
   XY=            -13.0818   XZ=             -2.4765   YZ=              2.6135

  Exact polarizability:   0.000   0.000   0.000   0.000   0.000   0.000
 Approx polarizability: 143.404   3.220 131.818  -4.012   0.938 129.103

 Normal termination of Gaussian 09 at Sat Jan 14 01:07:48 2017.
