 Gaussian 09, Revision E.01,
 Gaussian 09:  ES64L-G09RevE.01 30-Nov-2015

 -------------------------------------
 # b3lyp/6-31g(d) irc=(calcfc,forward)
 -------------------------------------

 ---------------------------------
 glo_1w_alpha_ts_boat6_B3LYP_631Gd
 ---------------------------------
 Symbolic Z-matrix:
 Charge =  0 Multiplicity = 1

 SCF Done:  E(RB3LYP) =  -839.961446244     A.U. after   14 cycles
 SCF Done:  E(RB3LYP) =  -839.961677495     A.U. after   11 cycles
 SCF Done:  E(RB3LYP) =  -839.962373273     A.U. after   11 cycles
 SCF Done:  E(RB3LYP) =  -839.962391600     A.U. after   10 cycles
 SCF Done:  E(RB3LYP) =  -839.963590667     A.U. after   11 cycles
 SCF Done:  E(RB3LYP) =  -839.965387422     A.U. after   11 cycles
 SCF Done:  E(RB3LYP) =  -839.967811266     A.U. after   11 cycles
 SCF Done:  E(RB3LYP) =  -839.970787157     A.U. after   12 cycles
 SCF Done:  E(RB3LYP) =  -839.974016005     A.U. after   12 cycles
 SCF Done:  E(RB3LYP) =  -839.977028793     A.U. after   12 cycles
 SCF Done:  E(RB3LYP) =  -839.979455386     A.U. after   11 cycles
 SCF Done:  E(RB3LYP) =  -839.981446274     A.U. after   11 cycles

                          Input orientation:
 ---------------------------------------------------------------------
 Center     Atomic      Atomic             Coordinates (Angstroms)
 Number     Number       Type             X           Y           Z
 ---------------------------------------------------------------------
      1          6           0       -0.448282    0.858457    0.133640
      2          6           0        1.492558   -0.754892    0.071455
      3          6           0        1.060187    0.742151   -0.045684
      4          6           0        0.357823   -1.773899    0.340366
      5          1           0        0.751684   -2.769529    0.079585
      6          1           0        2.157052   -0.831168    0.934956
      7          1           0       -0.742414    0.489889    1.121368
      8          1           0        1.267256    1.050652   -1.086238
      9          6           0       -0.931993   -1.529156   -0.488102
     10          8           0       -0.971672   -0.010273   -0.896961
     11          6           0       -0.973838    2.277848   -0.008822
     12          1           0       -0.388325    2.917035    0.662336
     13          1           0       -0.839390    2.630119   -1.042375
     14          8           0       -2.362728    2.279534    0.357793
     15          1           0       -2.697843    3.183990    0.268207
     16          8           0        0.047539   -1.703523    1.716845
     17          1           0       -0.913130   -1.887760    1.758703
     18          8           0        2.302094   -1.149331   -1.055007
     19          1           0        1.789050   -0.980924   -1.862639
     20          8           0        1.731887    1.582842    0.860768
     21          1           0        2.678161    1.550833    0.594791
     22          8           0       -3.399098   -0.086654   -0.731568
     23          1           0       -2.802254   -1.255467   -0.094379
     24          1           0       -2.494534    0.166620   -1.059472
     25          1           0       -3.549463    0.616001   -0.074475
     26          8           0        4.153866    0.867996   -0.366080
     27          1           0        4.822903    0.477093    0.215801
     28          1           0        3.707409    0.099204   -0.782936
     29          8           0       -2.036421   -1.864992    0.228897
     30          1           0       -0.889753   -1.983948   -1.485840
 ---------------------------------------------------------------------

 Alpha  occ. eigenvalues --  -19.17909 -19.17177 -19.17015 -19.15490 -19.14680
 Alpha  occ. eigenvalues --  -19.14071 -19.13770 -19.13199 -10.30067 -10.24728
 Alpha  occ. eigenvalues --  -10.24610 -10.24573 -10.24313 -10.24144  -1.07446
 Alpha  occ. eigenvalues --   -1.04789  -1.03870  -1.01985  -1.01584  -1.00889
 Alpha  occ. eigenvalues --   -0.99924  -0.99554  -0.77759  -0.76442  -0.69945
 Alpha  occ. eigenvalues --   -0.65529  -0.61780  -0.57911  -0.55690  -0.53729
 Alpha  occ. eigenvalues --   -0.53608  -0.52855  -0.51975  -0.51119  -0.50246
 Alpha  occ. eigenvalues --   -0.47943  -0.46045  -0.45114  -0.44443  -0.43052
 Alpha  occ. eigenvalues --   -0.42152  -0.41152  -0.40080  -0.39520  -0.38298
 Alpha  occ. eigenvalues --   -0.36666  -0.36161  -0.34867  -0.34279  -0.32619
 Alpha  occ. eigenvalues --   -0.31487  -0.30356  -0.29559  -0.29465  -0.28506
 Alpha  occ. eigenvalues --   -0.27845  -0.27190  -0.24970
 Alpha virt. eigenvalues --    0.04278   0.04907   0.07185   0.07847   0.09037
 Alpha virt. eigenvalues --    0.10365   0.12608   0.13347   0.13664   0.14721
 Alpha virt. eigenvalues --    0.15648   0.16061   0.16957   0.17891   0.18922

 Mulliken charges:
               1
     1  C    0.094347
     2  C    0.079673
     3  C    0.140698
     4  C    0.084913
     5  H    0.141983
     6  H    0.173081
     7  H    0.171499
     8  H    0.107573
     9  C    0.325590
    10  O   -0.602691
    11  C   -0.060701
    12  H    0.175760
    13  H    0.134458
    14  O   -0.641713
    15  H    0.406624
    16  O   -0.645750
    17  H    0.422788
    18  O   -0.645639
    19  H    0.404675
    20  O   -0.670928
    21  H    0.428302
    22  O   -0.835481
    23  H    0.455978
    24  H    0.445838
    25  H    0.418766
    26  O   -0.811142
    27  H    0.398567
    28  H    0.429141
    29  O   -0.662308
    30  H    0.136099
 Sum of Mulliken charges =  -0.00000

 Dipole moment (field-independent basis, Debye):
    X=              0.8254    Y=              1.6079    Z=             -1.5102  Tot=              2.3553
 Quadrupole moment (field-independent basis, Debye-Ang):
   XX=            -82.0669   YY=            -78.8829   ZZ=            -85.6402
   XY=            -12.5498   XZ=             -2.4113   YZ=              2.0643

  Exact polarizability:   0.000   0.000   0.000   0.000   0.000   0.000
 Approx polarizability: 136.159   0.320 130.438  -1.336   2.552 125.826

 Normal termination of Gaussian 09 at Sat Jan 14 01:11:22 2017.
