 Gaussian 09, Revision D.01,
 Gaussian 09:  ES64L-G09RevD.01 24-Apr-2013

 -------------------------
 # b3lyp/6-31g(d) opt freq
 -------------------------

 ----------------------------------
 glo_1w_beta_ircr_boat3_B3LYP_631Gd
 ----------------------------------
 Symbolic Z-matrix:
 Charge =  0 Multiplicity = 1

 SCF Done:  E(RB3LYP) =  -839.982018250     A.U. after   14 cycles
 SCF Done:  E(RB3LYP) =  -839.987055344     A.U. after   11 cycles
 SCF Done:  E(RB3LYP) =  -839.989619699     A.U. after   11 cycles
 SCF Done:  E(RB3LYP) =  -839.990539532     A.U. after   11 cycles
 SCF Done:  E(RB3LYP) =  -839.991009837     A.U. after   11 cycles
 SCF Done:  E(RB3LYP) =  -839.990847075     A.U. after   11 cycles
 SCF Done:  E(RB3LYP) =  -839.991360012     A.U. after   11 cycles
 SCF Done:  E(RB3LYP) =  -839.991468191     A.U. after   10 cycles
 SCF Done:  E(RB3LYP) =  -839.991545574     A.U. after   11 cycles
 SCF Done:  E(RB3LYP) =  -839.991588341     A.U. after   10 cycles
 SCF Done:  E(RB3LYP) =  -839.992690908     A.U. after   10 cycles
 SCF Done:  E(RB3LYP) =  -839.992712248     A.U. after   10 cycles
 SCF Done:  E(RB3LYP) =  -839.992716520     A.U. after    9 cycles
 SCF Done:  E(RB3LYP) =  -839.992721977     A.U. after    8 cycles
 SCF Done:  E(RB3LYP) =  -839.992722275     A.U. after    9 cycles
 SCF Done:  E(RB3LYP) =  -839.992723724     A.U. after    7 cycles
 SCF Done:  E(RB3LYP) =  -839.992724358     A.U. after    7 cycles
 SCF Done:  E(RB3LYP) =  -839.992724488     A.U. after    6 cycles
 SCF Done:  E(RB3LYP) =  -839.992724667     A.U. after    7 cycles
 Optimization completed.
    -- Stationary point found.
 Normal termination of Gaussian 09 at Wed Jan 25 15:09:45 2017.

 --------------------------------------------------------------------
 #N Geom=AllCheck Guess=TCheck SCRF=Check GenChk RB3LYP/6-31G(d) Freq
 --------------------------------------------------------------------

 Structure from the checkpoint file:  "/home/iawad/Gau-19074.chk"
 ----------------------------------
 glo_1w_beta_ircr_boat3_B3LYP_631Gd
 ----------------------------------
 Charge =  0 Multiplicity = 1

                         Standard orientation:
 ---------------------------------------------------------------------
 Center     Atomic      Atomic             Coordinates (Angstroms)
 Number     Number       Type             X           Y           Z
 ---------------------------------------------------------------------
      1          6           0       -0.301708   -1.149028    0.092111
      2          6           0       -1.433656    1.093909    0.477931
      3          8           0        0.979627    0.789817    0.988693
      4          6           0        0.013599    1.561811    0.263323
      5          6           0        0.969573   -0.642886    0.789859
      6          6           0       -1.524650   -0.432183    0.646325
      7          1           0        0.124502    2.564800    0.689991
      8          1           0       -1.582403   -0.646858    1.724735
      9          1           0       -1.996626    1.375733   -0.420574
     10          1           0        0.984575   -1.084536    1.796092
     11          1           0       -0.246579   -0.971531   -0.988377
     12          6           0        2.233643   -1.065662    0.029024
     13          1           0        3.132003   -0.681460    0.531836
     14          1           0        2.210012   -0.652772   -0.982673
     15          8           0        0.271587    1.549207   -1.115411
     16          8           0        2.294718   -2.489181   -0.121996
     17          1           0        2.533812   -2.868855    0.738677
     18          8           0       -1.926563    1.789024    1.616806
     19          1           0       -2.860726    1.546731    1.716860
     20          8           0       -2.708143   -0.888991   -0.009897
     21          1           0       -2.635141   -1.860575   -0.028837
     22          8           0       -0.500620   -2.538310    0.347991
     23          1           0        0.252476   -2.990592   -0.074241
     24          8           0        2.880933    2.227767   -0.521509
     25          1           0        1.181875    1.906873   -1.232621
     26          1           0        2.565330    1.780945    0.288994
     27          1           0        3.133770    3.121859   -0.245412
     28          8           0       -1.696594   -0.064839   -2.790939
     29          1           0       -1.065867    0.585402   -2.437878
     30          1           0       -2.231383   -0.316881   -2.017908
 ---------------------------------------------------------------------

 SCF Done:  E(RB3LYP) =  -839.992724667     A.U. after    1 cycles

 The electronic state is 1-A.
 Alpha  occ. eigenvalues --  -19.18010 -19.17866 -19.17179 -19.16214 -19.16194
 Alpha  occ. eigenvalues --  -19.15697 -19.15528 -19.10111 -10.29985 -10.25415
 Alpha  occ. eigenvalues --  -10.24996 -10.24873 -10.24546 -10.24193  -1.08371
 Alpha  occ. eigenvalues --   -1.05000  -1.04347  -1.02996  -1.02767  -1.01691
 Alpha  occ. eigenvalues --   -1.01240  -0.96000  -0.79170  -0.77861  -0.70383
 Alpha  occ. eigenvalues --   -0.65282  -0.64143  -0.57238  -0.56713  -0.55479
 Alpha  occ. eigenvalues --   -0.55180  -0.53138  -0.51884  -0.49781  -0.48597
 Alpha  occ. eigenvalues --   -0.48216  -0.46890  -0.45875  -0.44164  -0.43282
 Alpha  occ. eigenvalues --   -0.42574  -0.41629  -0.40762  -0.39244  -0.38358
 Alpha  occ. eigenvalues --   -0.36643  -0.36214  -0.34761  -0.34234  -0.33356
 Alpha  occ. eigenvalues --   -0.32080  -0.31830  -0.30227  -0.28683  -0.28504
 Alpha  occ. eigenvalues --   -0.27968  -0.26664  -0.25656
 Alpha virt. eigenvalues --    0.03510   0.04720   0.06950   0.07810   0.09421
 Alpha virt. eigenvalues --    0.10341   0.11003   0.12526   0.13378   0.13540
 Alpha virt. eigenvalues --    0.14458   0.15289   0.16091   0.16742   0.18820

 Mulliken charges:
               1
     1  C    0.054827
     2  C    0.118265
     3  O   -0.539355
     4  C    0.300835
     5  C    0.125341
     6  C    0.104361
     7  H    0.151033
     8  H    0.143013
     9  H    0.155465
    10  H    0.135765
    11  H    0.162089
    12  C   -0.078216
    13  H    0.141272
    14  H    0.182292
    15  O   -0.656911
    16  O   -0.617308
    17  H    0.402122
    18  O   -0.638754
    19  H    0.405132
    20  O   -0.654587
    21  H    0.419480
    22  O   -0.668851
    23  H    0.415563
    24  O   -0.801549
    25  H    0.437664
    26  H    0.424736
    27  H    0.403569
    28  O   -0.842917
    29  H    0.414598
    30  H    0.401028
 Sum of Mulliken charges =   0.00000

 Dipole moment (field-independent basis, Debye):
    X=              2.9971    Y=              0.6312    Z=              4.5223  Tot=              5.4619
 Quadrupole moment (field-independent basis, Debye-Ang):
   XX=            -77.2316   YY=            -73.3294   ZZ=            -97.4319
   XY=              2.9094   XZ=             -1.0904   YZ=             -4.2084

  Exact polarizability:  99.737   2.355  98.810  -0.003  -0.713  83.006
 Approx polarizability: 126.997   5.389 132.399   1.577  -0.511 125.600

                      1                      2                      3
                      A                      A                      A
 Frequencies --     40.5722                51.3545                64.1906
 Red. masses --      5.8896                 9.0897                 5.6155
 Frc consts  --      0.0057                 0.0141                 0.0136
 IR Inten    --      1.0388                 8.3759                 3.3575

                      4                      5                      6
                      A                      A                      A
 Frequencies --     86.8022               100.8834               123.5904
 Red. masses --      6.8037                 6.6737                 3.9216
 Frc consts  --      0.0302                 0.0400                 0.0353
 IR Inten    --      2.9258                 0.4978                 4.5608

                      7                      8                      9
                      A                      A                      A
 Frequencies --    137.6446               148.1765               161.1343
 Red. masses --      6.2556                 6.5084                 3.7337
 Frc consts  --      0.0698                 0.0842                 0.0571
 IR Inten    --      1.2722                 2.7675                 9.6569

                     10                     11                     12
                      A                      A                      A
 Frequencies --    190.9388               210.7823               253.8332
 Red. masses --      6.4226                 3.8416                 4.1029
 Frc consts  --      0.1380                 0.1006                 0.1558
 IR Inten    --      1.9391                18.3659                 9.5900

                     13                     14                     15
                      A                      A                      A
 Frequencies --    262.9494               272.9530               279.6933
 Red. masses --      2.3932                 1.7262                 2.8228
 Frc consts  --      0.0975                 0.0758                 0.1301
 IR Inten    --     74.7687                23.8298                12.4916

                     16                     17                     18
                      A                      A                      A
 Frequencies --    316.1076               335.6032               339.4494
 Red. masses --      1.1584                 1.4834                 1.2503
 Frc consts  --      0.0682                 0.0984                 0.0849
 IR Inten    --    227.5084                92.9013                39.2614

                     19                     20                     21
                      A                      A                      A
 Frequencies --    351.9723               378.1355               411.7527
 Red. masses --      2.2647                 5.4634                 5.3113
 Frc consts  --      0.1653                 0.4603                 0.5306
 IR Inten    --     15.1170                15.6183                 3.3168

                     22                     23                     24
                      A                      A                      A
 Frequencies --    440.8615               451.3057               467.6481
 Red. masses --      1.1721                 3.0867                 1.4206
 Frc consts  --      0.1342                 0.3704                 0.1831
 IR Inten    --    178.1099                17.8936               166.8844

                     25                     26                     27
                      A                      A                      A
 Frequencies --    481.1475               506.6877               524.1331
 Red. masses --      2.0013                 1.6736                 1.9192
 Frc consts  --      0.2730                 0.2532                 0.3106
 IR Inten    --     12.4352                11.0580                11.2342

                     28                     29                     30
                      A                      A                      A
 Frequencies --    544.1948               575.5341               593.7249
 Red. masses --      4.2247                 2.4174                 1.2538
 Frc consts  --      0.7371                 0.4718                 0.2604
 IR Inten    --     38.1410                43.0259                29.9749

                     31                     32                     33
                      A                      A                      A
 Frequencies --    602.7808               615.7727               668.5355
 Red. masses --      1.2512                 3.6065                 1.0788
 Frc consts  --      0.2679                 0.8057                 0.2841
 IR Inten    --     88.8988                41.2071               259.3037

                     34                     35                     36
                      A                      A                      A
 Frequencies --    777.1389               819.1466               899.1540
 Red. masses --      4.4640                 1.1705                 3.1699
 Frc consts  --      1.5884                 0.4627                 1.5099
 IR Inten    --     45.7911               119.4043                78.1430

                     37                     38                     39
                      A                      A                      A
 Frequencies --    910.5988               988.7519              1023.5559
 Red. masses --      1.8169                 3.3571                 3.9260
 Frc consts  --      0.8876                 1.9337                 2.4234
 IR Inten    --      3.8766                 9.6280                17.3488

                     40                     41                     42
                      A                      A                      A
 Frequencies --   1046.7245              1053.2298              1057.7402
 Red. masses --      5.0787                 4.5036                 4.5943
 Frc consts  --      3.2784                 2.9434                 3.0285
 IR Inten    --    188.5561               161.3909                61.8027

                     43                     44                     45
                      A                      A                      A
 Frequencies --   1082.3093              1102.6365              1119.9737
 Red. masses --      2.3194                 2.9222                 3.7071
 Frc consts  --      1.6008                 2.0932                 2.7397
 IR Inten    --     20.0641                61.1195                68.9216

                     46                     47                     48
                      A                      A                      A
 Frequencies --   1127.4837              1135.1619              1152.4727
 Red. masses --      3.1864                 3.7721                 2.9195
 Frc consts  --      2.3865                 2.8638                 2.2846
 IR Inten    --     38.3930                54.5913                21.9334

                     49                     50                     51
                      A                      A                      A
 Frequencies --   1200.4555              1249.5959              1263.3226
 Red. masses --      1.4476                 1.1519                 1.1192
 Frc consts  --      1.2291                 1.0598                 1.0524
 IR Inten    --     12.9971                40.6549                46.6495

                     52                     53                     54
                      A                      A                      A
 Frequencies --   1299.8439              1315.1922              1331.3020
 Red. masses --      1.1839                 1.1526                 1.2681
 Frc consts  --      1.1785                 1.1746                 1.3242
 IR Inten    --     38.8728                 7.5514                 7.0950

                     55                     56                     57
                      A                      A                      A
 Frequencies --   1360.1227              1364.3330              1389.7501
 Red. masses --      1.1490                 1.2835                 1.2285
 Frc consts  --      1.2524                 1.4077                 1.3980
 IR Inten    --      9.0841                49.0409                14.4932

                     58                     59                     60
                      A                      A                      A
 Frequencies --   1399.2295              1409.9886              1423.2242
 Red. masses --      1.2496                 1.2420                 1.3164
 Frc consts  --      1.4414                 1.4548                 1.5710
 IR Inten    --     56.7218                25.7237                19.0310

                     61                     62                     63
                      A                      A                      A
 Frequencies --   1430.5385              1436.3177              1450.5660
 Red. masses --      1.4055                 1.3694                 1.4349
 Frc consts  --      1.6947                 1.6645                 1.7789
 IR Inten    --      5.5200                46.2872                14.1667

                     64                     65                     66
                      A                      A                      A
 Frequencies --   1485.0577              1514.9398              1532.5527
 Red. masses --      1.4859                 1.5205                 1.0902
 Frc consts  --      1.9308                 2.0560                 1.5087
 IR Inten    --      9.1355                47.1650                 1.8789

                     67                     68                     69
                      A                      A                      A
 Frequencies --   1703.3895              1761.0726              3011.0689
 Red. masses --      1.0785                 1.0750                 1.0836
 Frc consts  --      1.8437                 1.9643                 5.7886
 IR Inten    --     69.6217               187.0783                23.2194

                     70                     71                     72
                      A                      A                      A
 Frequencies --   3032.9805              3041.1569              3058.9681
 Red. masses --      1.0828                 1.0706                 1.0848
 Frc consts  --      5.8684                 5.8341                 5.9807
 IR Inten    --     39.4598                44.6766                20.4632

                     73                     74                     75
                      A                      A                      A
 Frequencies --   3077.5345              3081.8220              3136.9855
 Red. masses --      1.0854                 1.0874                 1.0983
 Frc consts  --      6.0569                 6.0847                 6.3679
 IR Inten    --     13.5775                36.1844                16.6584

                     76                     77                     78
                      A                      A                      A
 Frequencies --   3493.0580              3621.4088              3671.0293
 Red. masses --      1.0658                 1.0540                 1.0468
 Frc consts  --      7.6618                 8.1439                 8.3120
 IR Inten    --    332.2641               250.6175                71.6947

                     79                     80                     81
                      A                      A                      A
 Frequencies --   3678.0175              3694.8490              3737.8897
 Red. masses --      1.0655                 1.0648                 1.0663
 Frc consts  --      8.4927                 8.5645                 8.7777
 IR Inten    --    120.2808                50.6681                24.5731

                     82                     83                     84
                      A                      A                      A
 Frequencies --   3747.0557              3772.4826              3806.7405
 Red. masses --      1.0663                 1.0815                 1.0745
 Frc consts  --      8.8207                 9.0684                 9.1741
 IR Inten    --     28.6017                83.1875                90.9666

 - Thermochemistry -
 -------------------
 Temperature   298.150 Kelvin.  Pressure   1.00000 Atm.
 Atom     1 has atomic number  6 and mass  12.00000

 Molecular mass:   216.08452 amu.
 Principal axes and moments of inertia in atomic units:
                           1         2         3
     Eigenvalues --  2769.109913222.560534212.98643
           X            0.99963   0.02645   0.00561
           Y           -0.02639   0.99959  -0.01142
           Z           -0.00591   0.01127   0.99992
 This molecule is an asymmetric top.
 Rotational symmetry number  1.
 Warning -- assumption of classical behavior for rotation
           may cause significant error
 Rotational temperatures (Kelvin)      0.03128     0.02688     0.02056
 Rotational constants (GHZ):           0.65174     0.56003     0.42838
 Zero-point vibrational energy     653584.3 (Joules/Mol)
                                  156.21040 (Kcal/Mol)
 Warning -- explicit consideration of  32 degrees of freedom as
           vibrations may cause significant error
 Vibrational temperatures:     58.37    73.89    92.36   124.89   145.15
          (Kelvin)            177.82   198.04   213.19   231.84   274.72
                              303.27   365.21   378.33   392.72   402.42
                              454.81   482.86   488.39   506.41   544.05
                              592.42   634.30   649.33   672.84   692.26
                              729.01   754.11   782.97   828.06   854.24
                              867.27   885.96   961.87  1118.13  1178.57
                             1293.68  1310.15  1422.59  1472.67  1506.00
                             1515.36  1521.85  1557.20  1586.45  1611.39
                             1622.20  1633.24  1658.15  1727.19  1797.89
                             1817.64  1870.18  1892.27  1915.44  1956.91
                             1962.97  1999.54  2013.18  2028.66  2047.70
                             2058.22  2066.54  2087.04  2136.66  2179.66
                             2205.00  2450.79  2533.79  4332.25  4363.78
                             4375.54  4401.17  4427.88  4434.05  4513.42
                             5025.73  5210.39  5281.79  5291.84  5316.06
                             5377.98  5391.17  5427.75  5477.04

 Zero-point correction=                           0.248937 (Hartree/Particle)
 Thermal correction to Energy=                    0.266629
 Thermal correction to Enthalpy=                  0.267573
 Thermal correction to Gibbs Free Energy=         0.204336
 Sum of electronic and zero-point Energies=           -839.743788
 Sum of electronic and thermal Energies=              -839.726095
 Sum of electronic and thermal Enthalpies=            -839.725151
 Sum of electronic and thermal Free Energies=         -839.788389

                     E (Thermal)             CV                S
                      KCal/Mol        Cal/Mol-Kelvin    Cal/Mol-Kelvin
 Total                  167.312             65.180            133.095
 Electronic               0.000              0.000              0.000
 Translational            0.889              2.981             42.015
 Rotational               0.889              2.981             31.997
 Vibrational            165.535             59.218             59.083
 Vibration     1          0.594              1.981              5.231
 Vibration     2          0.596              1.977              4.765
 Vibration     3          0.597              1.971              4.324
 Vibration     4          0.601              1.958              3.731
 Vibration     5          0.604              1.948              3.437
 Vibration     6          0.610              1.929              3.043
 Vibration     7          0.614              1.916              2.836
 Vibration     8          0.618              1.905              2.696
 Vibration     9          0.622              1.890              2.536
 Vibration    10          0.634              1.852              2.219
 Vibration    11          0.643              1.824              2.037
 Vibration    12          0.665              1.756              1.704
 Vibration    13          0.670              1.741              1.642
 Vibration    14          0.676              1.723              1.577
 Vibration    15          0.680              1.711              1.536
 Vibration    16          0.703              1.643              1.330
 Vibration    17          0.717              1.604              1.233
 Vibration    18          0.719              1.597              1.215
 Vibration    19          0.729              1.571              1.157
 Vibration    20          0.748              1.517              1.047
 Vibration    21          0.776              1.445              0.920
 Vibration    22          0.801              1.381              0.824
 Vibration    23          0.810              1.358              0.792
 Vibration    24          0.825              1.322              0.744
 Vibration    25          0.837              1.292              0.707
 Vibration    26          0.862              1.235              0.642
 Vibration    27          0.879              1.197              0.600
 Vibration    28          0.899              1.152              0.556
 Vibration    29          0.932              1.084              0.494
 Vibration    30          0.951              1.045              0.461
 Vibration    31          0.961              1.026              0.445
 Vibration    32          0.975              0.999              0.423

 Normal termination of Gaussian 09 at Wed Jan 25 15:14:22 2017.
