 Gaussian 09, Revision E.01,
 Gaussian 09:  ES64L-G09RevE.01 30-Nov-2015

 -----------------------------------------
 # opt=(MaxCycle=1000) freq B3LYP/6-31G(d)
 -----------------------------------------

 -------------------------------------------------
 ./boats/3/glo_2w_alpha_ts_boat3_B3LYP_631Gd_r.out
 -------------------------------------------------
 Symbolic Z-matrix:
 Charge =  0 Multiplicity = 1

 SCF Done:  E(RB3LYP) =  -839.967941118     A.U. after   13 cycles
 SCF Done:  E(RB3LYP) =  -839.966455685     A.U. after   14 cycles
 SCF Done:  E(RB3LYP) =  -839.970570577     A.U. after   11 cycles
 SCF Done:  E(RB3LYP) =  -839.973814161     A.U. after   12 cycles
 SCF Done:  E(RB3LYP) =  -839.978119223     A.U. after   13 cycles
 SCF Done:  E(RB3LYP) =  -839.980803778     A.U. after   13 cycles
 SCF Done:  E(RB3LYP) =  -839.983029466     A.U. after   12 cycles
 SCF Done:  E(RB3LYP) =  -839.982362227     A.U. after   12 cycles
 SCF Done:  E(RB3LYP) =  -839.984153908     A.U. after   10 cycles
 SCF Done:  E(RB3LYP) =  -839.984605670     A.U. after   12 cycles
 SCF Done:  E(RB3LYP) =  -839.994672822     A.U. after   10 cycles
 SCF Done:  E(RB3LYP) =  -839.994667954     A.U. after   10 cycles
 SCF Done:  E(RB3LYP) =  -839.994674211     A.U. after    8 cycles
 SCF Done:  E(RB3LYP) =  -839.994676520     A.U. after    9 cycles
 SCF Done:  E(RB3LYP) =  -839.994676628     A.U. after    8 cycles
 SCF Done:  E(RB3LYP) =  -839.994676810     A.U. after    8 cycles
 SCF Done:  E(RB3LYP) =  -839.994677194     A.U. after    7 cycles
 SCF Done:  E(RB3LYP) =  -839.994677772     A.U. after    7 cycles
 SCF Done:  E(RB3LYP) =  -839.994678569     A.U. after    7 cycles
 Optimization completed.
    -- Stationary point found.
 Normal termination of Gaussian 09 at Sun Jan 15 15:42:14 2017.

 --------------------------------------------------------------------
 #N Geom=AllCheck Guess=TCheck SCRF=Check GenChk RB3LYP/6-31G(d) Freq
 --------------------------------------------------------------------

 Structure from the checkpoint file:  "/scratch/10462931.yak.local/Gau-7804.chk"
 -------------------------------------------------
 ./boats/3/glo_2w_alpha_ts_boat3_B3LYP_631Gd_r.out
 -------------------------------------------------
 Charge =  0 Multiplicity = 1

                         Standard orientation:
 ---------------------------------------------------------------------
 Center     Atomic      Atomic             Coordinates (Angstroms)
 Number     Number       Type             X           Y           Z
 ---------------------------------------------------------------------
      1          6           0       -0.368384   -0.512759    1.012771
      2          6           0       -0.872642    1.558133   -0.578887
      3          8           0        0.462565   -1.121158   -1.215954
      4          6           0        0.430298    2.326621   -0.619738
      5          6           0       -0.321213   -1.569452   -0.126638
      6          6           0       -1.157661    0.795166    0.761978
      7          1           0       -0.899780    1.469821    1.587639
      8          1           0       -0.808256    0.827944   -1.402628
      9          1           0        0.145267   -2.456622    0.331530
     10          1           0       -0.834343   -0.972904    1.892724
     11          6           0       -1.678232   -1.968375   -0.722901
     12          1           0       -1.567320   -2.890690   -1.306116
     13          1           0       -2.022896   -1.189269   -1.407104
     14          8           0       -2.725644   -2.104138    0.250844
     15          1           0       -2.471621   -2.788078    0.890589
     16          8           0       -1.894361    2.509515   -0.806018
     17          1           0       -2.697070    2.088851   -0.441436
     18          8           0       -2.569572    0.598547    0.824827
     19          1           0       -2.779685   -0.353585    0.709497
     20          8           0        0.968327   -0.217454    1.391844
     21          1           0        1.328410    0.305329    0.648677
     22          1           0        0.342158    3.342723   -1.049452
     23          8           0        1.512457    1.905682   -0.244064
     24          8           0        3.064247   -1.762668   -0.763472
     25          1           0        1.405846   -1.388112   -1.067503
     26          1           0        3.589797   -1.713263   -1.575767
     27          8           0        3.810294    0.391464    0.815500
     28          1           0        3.389030    1.167192    0.405151
     29          1           0        3.408570   -1.031332   -0.194027
     30          1           0        3.252399    0.207674    1.590660
 ---------------------------------------------------------------------

 SCF Done:  E(RB3LYP) =  -839.994678569     A.U. after    1 cycles

 The electronic state is 1-A.
 Alpha  occ. eigenvalues --  -19.18674 -19.18411 -19.16632 -19.15003 -19.14724
 Alpha  occ. eigenvalues --  -19.14213 -19.14153 -19.13217 -10.30291 -10.24826
 Alpha  occ. eigenvalues --  -10.24726 -10.24569 -10.24235 -10.24038  -1.08013
 Alpha  occ. eigenvalues --   -1.05327  -1.03761  -1.03014  -1.02223  -1.00802
 Alpha  occ. eigenvalues --   -1.00436  -0.99493  -0.77465  -0.74797  -0.70181
 Alpha  occ. eigenvalues --   -0.66016  -0.60878  -0.58407  -0.54404  -0.53682
 Alpha  occ. eigenvalues --   -0.52782  -0.52398  -0.52154  -0.50963  -0.49926
 Alpha  occ. eigenvalues --   -0.47207  -0.46604  -0.45625  -0.45357  -0.43772
 Alpha  occ. eigenvalues --   -0.42394  -0.40963  -0.40566  -0.39778  -0.38162
 Alpha  occ. eigenvalues --   -0.37771  -0.36226  -0.34913  -0.33913  -0.32765
 Alpha  occ. eigenvalues --   -0.31994  -0.30770  -0.30620  -0.29391  -0.28526
 Alpha  occ. eigenvalues --   -0.27742  -0.25939  -0.25146
 Alpha virt. eigenvalues --   -0.05343   0.03733   0.05576   0.08154   0.09381
 Alpha virt. eigenvalues --    0.10797   0.12375   0.12858   0.13252   0.13938
 Alpha virt. eigenvalues --    0.15750   0.16850   0.17193   0.17673   0.18663

 Mulliken charges:
               1
     1  C    0.081940
     2  C    0.045317
     3  O   -0.685760
     4  C    0.255723
     5  C    0.084536
     6  C    0.106121
     7  H    0.146698
     8  H    0.186716
     9  H    0.130920
    10  H    0.127176
    11  C   -0.079345
    12  H    0.156855
    13  H    0.172403
    14  O   -0.626914
    15  H    0.407471
    16  O   -0.658550
    17  H    0.422419
    18  O   -0.696359
    19  H    0.448013
    20  O   -0.683914
    21  H    0.418768
    22  H    0.159940
    23  O   -0.432777
    24  O   -0.820928
    25  H    0.446501
    26  H    0.396063
    27  O   -0.798360
    28  H    0.430423
    29  H    0.433193
    30  H    0.425708
 Sum of Mulliken charges =   0.00000

 Dipole moment (field-independent basis, Debye):
    X=              0.2519    Y=             -1.5588    Z=             -0.3073  Tot=              1.6086
 Quadrupole moment (field-independent basis, Debye-Ang):
   XX=            -89.3041   YY=            -79.4801   ZZ=            -81.9260
   XY=              8.2661   XZ=             -6.0879   YZ=             -1.3830

  Exact polarizability: 104.551   1.147  99.892  -1.636  -4.659  80.261
 Approx polarizability: 145.400  -1.372 129.472  -0.593  -9.285 118.980

                      1                      2                      3
                      A                      A                      A
 Frequencies --     35.8903                46.1207                53.8592
 Red. masses --      5.7909                 6.1565                 5.8858
 Frc consts  --      0.0044                 0.0077                 0.0101
 IR Inten    --      2.3891                 2.2639                 1.5038

                      4                      5                      6
                      A                      A                      A
 Frequencies --     63.5639                76.0610               102.5574
 Red. masses --      5.4043                 6.4464                 3.7648
 Frc consts  --      0.0129                 0.0220                 0.0233
 IR Inten    --      3.5384                 2.4293                 9.4150

                      7                      8                      9
                      A                      A                      A
 Frequencies --    136.9983               142.3839               163.8733
 Red. masses --      5.2933                 6.2862                 2.5814
 Frc consts  --      0.0585                 0.0751                 0.0408
 IR Inten    --      7.8343                 0.6589                 7.6290

                     10                     11                     12
                      A                      A                      A
 Frequencies --    184.7689               222.4647               241.9443
 Red. masses --      4.7227                 6.2918                 5.8121
 Frc consts  --      0.0950                 0.1835                 0.2005
 IR Inten    --      1.6828                 9.6136                10.5802

                     13                     14                     15
                      A                      A                      A
 Frequencies --    249.8778               260.6261               269.9763
 Red. masses --      3.5919                 6.3552                 6.6124
 Frc consts  --      0.1321                 0.2543                 0.2840
 IR Inten    --     23.5474                14.7627                 0.5060

                     16                     17                     18
                      A                      A                      A
 Frequencies --    282.2591               301.4243               343.0227
 Red. masses --      2.0274                 1.5677                 1.3488
 Frc consts  --      0.0952                 0.0839                 0.0935
 IR Inten    --     20.2180                83.8534                40.0046

                     19                     20                     21
                      A                      A                      A
 Frequencies --    353.6554               363.5610               368.7822
 Red. masses --      2.6361                 2.6792                 1.3845
 Frc consts  --      0.1943                 0.2086                 0.1109
 IR Inten    --     15.2624                34.6434               100.8493

                     22                     23                     24
                      A                      A                      A
 Frequencies --    382.8929               429.9394               458.0693
 Red. masses --      1.4272                 3.6246                 2.4811
 Frc consts  --      0.1233                 0.3948                 0.3067
 IR Inten    --    148.3485                28.1498                24.1966

                     25                     26                     27
                      A                      A                      A
 Frequencies --    471.3765               487.5188               515.8747
 Red. masses --      4.3254                 2.5796                 1.2238
 Frc consts  --      0.5663                 0.3612                 0.1919
 IR Inten    --      1.1074                56.2528                81.3287

                     28                     29                     30
                      A                      A                      A
 Frequencies --    546.0420               556.6625               582.9194
 Red. masses --      1.2224                 1.4635                 2.3394
 Frc consts  --      0.2147                 0.2672                 0.4684
 IR Inten    --    134.0222                48.7864                13.8123

                     31                     32                     33
                      A                      A                      A
 Frequencies --    602.6972               633.5667               727.4419
 Red. masses --      1.3221                 3.7468                 1.1960
 Frc consts  --      0.2829                 0.8861                 0.3729
 IR Inten    --    320.7826                24.0525               115.9476

                     34                     35                     36
                      A                      A                      A
 Frequencies --    737.8181               744.4911               761.8593
 Red. masses --      2.8026                 1.1650                 2.2774
 Frc consts  --      0.8989                 0.3804                 0.7788
 IR Inten    --     17.4949               143.3102                10.2674

                     37                     38                     39
                      A                      A                      A
 Frequencies --    859.9517               949.4364               996.6988
 Red. masses --      2.3842                 1.0597                 2.0640
 Frc consts  --      1.0388                 0.5628                 1.2080
 IR Inten    --      8.1299               107.3117                35.2164

                     40                     41                     42
                      A                      A                      A
 Frequencies --   1016.9068              1031.8809              1048.4435
 Red. masses --      2.2780                 3.1057                 2.7158
 Frc consts  --      1.3879                 1.9483                 1.7589
 IR Inten    --     90.7203                57.2426                53.0985

                     43                     44                     45
                      A                      A                      A
 Frequencies --   1083.0206              1091.3371              1105.9685
 Red. masses --      3.4753                 5.3697                 3.2813
 Frc consts  --      2.4017                 3.7680                 2.3647
 IR Inten    --     10.2732               144.8180                23.2384

                     46                     47                     48
                      A                      A                      A
 Frequencies --   1113.7075              1131.0342              1162.3993
 Red. masses --      3.4137                 5.1477                 3.8228
 Frc consts  --      2.4947                 3.8798                 3.0433
 IR Inten    --     12.0553                51.7012                17.2498

                     49                     50                     51
                      A                      A                      A
 Frequencies --   1189.5205              1274.4295              1284.4304
 Red. masses --      1.2566                 1.2824                 1.1455
 Frc consts  --      1.0476                 1.2271                 1.1135
 IR Inten    --     24.9943                32.6644                 7.2487

                     52                     53                     54
                      A                      A                      A
 Frequencies --   1314.8921              1335.1080              1338.3535
 Red. masses --      1.1523                 1.1276                 1.2246
 Frc consts  --      1.1738                 1.1842                 1.2924
 IR Inten    --     62.3184                11.2811                 6.2622

                     55                     56                     57
                      A                      A                      A
 Frequencies --   1373.5584              1387.4212              1400.7867
 Red. masses --      1.2977                 1.3807                 1.2123
 Frc consts  --      1.4425                 1.5659                 1.4015
 IR Inten    --     34.1495                19.7228                51.7589

                     58                     59                     60
                      A                      A                      A
 Frequencies --   1405.3237              1423.7674              1426.7084
 Red. masses --      1.2833                 1.2361                 1.2429
 Frc consts  --      1.4933                 1.4763                 1.4906
 IR Inten    --     47.5346                16.6532                 2.9254

                     61                     62                     63
                      A                      A                      A
 Frequencies --   1444.4028              1469.5963              1502.9679
 Red. masses --      1.4945                 1.2329                 1.2704
 Frc consts  --      1.8371                 1.5689                 1.6907
 IR Inten    --     23.9091                77.8588                30.9197

                     64                     65                     66
                      A                      A                      A
 Frequencies --   1521.9337              1540.1216              1735.1480
 Red. masses --      1.1568                 1.0829                 1.0862
 Frc consts  --      1.5787                 1.5133                 1.9268
 IR Inten    --     86.2226                 2.7200               171.4544

                     67                     68                     69
                      A                      A                      A
 Frequencies --   1747.2375              1798.7525              2996.4932
 Red. masses --      1.0757                 9.5078                 1.0848
 Frc consts  --      1.9348                18.1248                 5.7389
 IR Inten    --     47.6109               127.7552                47.8853

                     70                     71                     72
                      A                      A                      A
 Frequencies --   2997.2404              3003.5212              3054.6300
 Red. masses --      1.0871                 1.0795                 1.0853
 Frc consts  --      5.7539                 5.7376                 5.9663
 IR Inten    --     61.7091                11.4468                38.1020

                     73                     74                     75
                      A                      A                      A
 Frequencies --   3063.9330              3064.4741              3136.8073
 Red. masses --      1.0736                 1.0797                 1.0999
 Frc consts  --      5.9379                 5.9742                 6.3765
 IR Inten    --     68.9182                24.0374                23.1724

                     76                     77                     78
                      A                      A                      A
 Frequencies --   3338.6798              3455.6750              3527.2326
 Red. masses --      1.0685                 1.0606                 1.0681
 Frc consts  --      7.0173                 7.4626                 7.8293
 IR Inten    --    932.0862               576.1708               476.7991

                     79                     80                     81
                      A                      A                      A
 Frequencies --   3607.9357              3643.8807              3697.7648
 Red. masses --      1.0655                 1.0644                 1.0456
 Frc consts  --      8.1721                 8.3267                 8.4236
 IR Inten    --    216.8554                81.1289                76.0562

                     82                     83                     84
                      A                      A                      A
 Frequencies --   3743.9146              3792.2360              3800.1623
 Red. masses --      1.0663                 1.0811                 1.0681
 Frc consts  --      8.8063                 9.1604                 9.0878
 IR Inten    --     24.1712               105.4134                47.3973

 - Thermochemistry -
 -------------------
 Temperature   298.150 Kelvin.  Pressure   1.00000 Atm.
 Atom     1 has atomic number  6 and mass  12.00000

 Molecular mass:   216.08452 amu.
 Principal axes and moments of inertia in atomic units:
                           1         2         3
     Eigenvalues --  2476.760473634.682365014.52295
           X            0.99998   0.00651  -0.00095
           Y           -0.00650   0.99996   0.00563
           Z            0.00098  -0.00562   0.99998
 This molecule is an asymmetric top.
 Rotational symmetry number  1.
 Warning -- assumption of classical behavior for rotation
           may cause significant error
 Rotational temperatures (Kelvin)      0.03497     0.02383     0.01727
 Rotational constants (GHZ):           0.72867     0.49653     0.35990
 Zero-point vibrational energy     647973.2 (Joules/Mol)
                                  154.86932 (Kcal/Mol)
 Warning -- explicit consideration of  31 degrees of freedom as
           vibrations may cause significant error
 Vibrational temperatures:     51.64    66.36    77.49    91.45   109.43
          (Kelvin)            147.56   197.11   204.86   235.78   265.84
                              320.08   348.10   359.52   374.98   388.44
                              406.11   433.68   493.53   508.83   523.08
                              530.59   550.90   618.59   659.06   678.20
                              701.43   742.23   785.63   800.91   838.69
                              867.15   911.56  1046.63  1061.55  1071.16
                             1096.14  1237.28  1366.03  1434.03  1463.10
                             1484.64  1508.47  1558.22  1570.19  1591.24
                             1602.37  1627.30  1672.43  1711.45  1833.62
                             1848.01  1891.83  1920.92  1925.59  1976.24
                             1996.19  2015.42  2021.94  2048.48  2052.71
                             2078.17  2114.42  2162.43  2189.72  2215.89
                             2496.49  2513.88  2588.00  4311.28  4312.35
                             4321.39  4394.93  4408.31  4409.09  4513.16
                             4803.61  4971.94  5074.89  5191.01  5242.73
                             5320.25  5386.65  5456.17  5467.58

 Zero-point correction=                           0.246800 (Hartree/Particle)
 Thermal correction to Energy=                    0.265052
 Thermal correction to Enthalpy=                  0.265996
 Thermal correction to Gibbs Free Energy=         0.200851
 Sum of electronic and zero-point Energies=           -839.747879
 Sum of electronic and thermal Energies=              -839.729627
 Sum of electronic and thermal Enthalpies=            -839.728683
 Sum of electronic and thermal Free Energies=         -839.793827

                     E (Thermal)             CV                S
                      KCal/Mol        Cal/Mol-Kelvin    Cal/Mol-Kelvin
 Total                  166.322             66.232            137.108
 Electronic               0.000              0.000              0.000
 Translational            0.889              2.981             42.015
 Rotational               0.889              2.981             32.179
 Vibrational            164.545             60.270             62.914
 Vibration     1          0.594              1.982              5.474
 Vibration     2          0.595              1.979              4.977
 Vibration     3          0.596              1.976              4.670
 Vibration     4          0.597              1.972              4.343
 Vibration     5          0.599              1.965              3.990
 Vibration     6          0.605              1.947              3.405
 Vibration     7          0.614              1.916              2.845
 Vibration     8          0.616              1.911              2.772
 Vibration     9          0.623              1.887              2.505
 Vibration    10          0.631              1.861              2.280
 Vibration    11          0.648              1.807              1.939
 Vibration    12          0.658              1.776              1.789
 Vibration    13          0.663              1.763              1.731
 Vibration    14          0.669              1.745              1.658
 Vibration    15          0.674              1.728              1.596
 Vibration    16          0.681              1.707              1.520
 Vibration    17          0.693              1.671              1.409
 Vibration    18          0.722              1.589              1.198
 Vibration    19          0.730              1.568              1.150
 Vibration    20          0.737              1.547              1.107
 Vibration    21          0.741              1.536              1.085
 Vibration    22          0.752              1.507              1.028
 Vibration    23          0.791              1.405              0.859
 Vibration    24          0.816              1.343              0.772
 Vibration    25          0.828              1.314              0.734
 Vibration    26          0.843              1.278              0.690
 Vibration    27          0.871              1.215              0.620
 Vibration    28          0.901              1.148              0.552
 Vibration    29          0.912              1.125              0.531
 Vibration    30          0.940              1.068              0.480
 Vibration    31          0.961              1.026              0.445

 Normal termination of Gaussian 09 at Sun Jan 15 16:00:49 2017.
