 Gaussian 09, Revision D.01,
 Gaussian 09:  ES64L-G09RevD.01 24-Apr-2013

 -------------------------
 # b3lyp/6-31g(d) opt freq
 -------------------------

 ----------------------------------
 glo_1w_beta_ircf_boat3_B3LYP_631Gd
 ----------------------------------
 Symbolic Z-matrix:
 Charge =  0 Multiplicity = 1

 SCF Done:  E(RB3LYP) =  -839.968545596     A.U. after   14 cycles
 SCF Done:  E(RB3LYP) =  -839.973421553     A.U. after   13 cycles
 SCF Done:  E(RB3LYP) =  -839.977266849     A.U. after   13 cycles
 SCF Done:  E(RB3LYP) =  -839.979303689     A.U. after   13 cycles
 SCF Done:  E(RB3LYP) =  -839.980996003     A.U. after   11 cycles
 SCF Done:  E(RB3LYP) =  -839.981614916     A.U. after   11 cycles
 SCF Done:  E(RB3LYP) =  -839.981767261     A.U. after   11 cycles
 SCF Done:  E(RB3LYP) =  -839.981819689     A.U. after   11 cycles
 SCF Done:  E(RB3LYP) =  -839.981912127     A.U. after   11 cycles
 SCF Done:  E(RB3LYP) =  -839.981958786     A.U. after   10 cycles
 SCF Done:  E(RB3LYP) =  -839.982063267     A.U. after    8 cycles
 SCF Done:  E(RB3LYP) =  -839.982064454     A.U. after    8 cycles
 SCF Done:  E(RB3LYP) =  -839.982065091     A.U. after    8 cycles
 SCF Done:  E(RB3LYP) =  -839.982065481     A.U. after    8 cycles
 SCF Done:  E(RB3LYP) =  -839.982065730     A.U. after    7 cycles
 SCF Done:  E(RB3LYP) =  -839.982065843     A.U. after    7 cycles
 SCF Done:  E(RB3LYP) =  -839.982065960     A.U. after    7 cycles
 SCF Done:  E(RB3LYP) =  -839.982066087     A.U. after    7 cycles
 SCF Done:  E(RB3LYP) =  -839.982066191     A.U. after    7 cycles
 Optimization completed.
    -- Stationary point found.
 Normal termination of Gaussian 09 at Wed Jan 25 14:49:11 2017.

 --------------------------------------------------------------------
 #N Geom=AllCheck Guess=TCheck SCRF=Check GenChk RB3LYP/6-31G(d) Freq
 --------------------------------------------------------------------

 Structure from the checkpoint file:  "/home/iawad/Gau-16873.chk"
 ----------------------------------
 glo_1w_beta_ircf_boat3_B3LYP_631Gd
 ----------------------------------
 Charge =  0 Multiplicity = 1

                         Standard orientation:
 ---------------------------------------------------------------------
 Center     Atomic      Atomic             Coordinates (Angstroms)
 Number     Number       Type             X           Y           Z
 ---------------------------------------------------------------------
      1          6           0        0.587884   -0.799905   -0.253698
      2          6           0       -1.684471   -0.080400    0.976578
      3          8           0        1.086992    1.196935    1.081358
      4          6           0       -1.436595    1.315457    0.449398
      5          6           0        1.593226   -0.057927    0.648702
      6          6           0       -0.732867   -1.191558    0.437606
      7          1           0       -1.312083    2.082618    1.232091
      8          1           0       -0.462082   -1.793041    1.319980
      9          1           0       -2.691860   -0.345883    0.618748
     10          1           0        1.748905   -0.659980    1.554932
     11          1           0        0.359842   -0.172291   -1.128619
     12          6           0        2.951587    0.176207   -0.042380
     13          1           0        3.596767    0.745599    0.639378
     14          1           0        2.803452    0.777909   -0.945035
     15          8           0       -1.450880    1.601663   -0.740807
     16          8           0        3.604201   -1.023125   -0.484960
     17          1           0        3.874075   -1.523414    0.302257
     18          8           0       -1.632386    0.025392    2.392153
     19          1           0       -2.126408   -0.721169    2.762384
     20          8           0       -1.480825   -1.997687   -0.473417
     21          1           0       -0.817913   -2.558314   -0.918730
     22          8           0        1.109658   -2.064088   -0.678050
     23          1           0        2.033237   -1.918598   -0.965740
     24          8           0        0.966496    2.921089   -1.087809
     25          1           0        0.017174    2.708173   -1.207262
     26          1           0        1.177461    1.845281    0.341231
     27          1           0        0.994169    3.868966   -0.887630
     28          8           0       -3.571598   -0.380464   -1.612739
     29          1           0       -2.967548    0.369804   -1.738012
     30          1           0       -2.953039   -1.114625   -1.443049
 ---------------------------------------------------------------------

 SCF Done:  E(RB3LYP) =  -839.982066191     A.U. after    1 cycles

 The electronic state is 1-A.
 Alpha  occ. eigenvalues --  -19.18280 -19.17342 -19.17057 -19.16062 -19.15670
 Alpha  occ. eigenvalues --  -19.15113 -19.15110 -19.10049 -10.29735 -10.25292
 Alpha  occ. eigenvalues --  -10.25114 -10.24947 -10.24861 -10.24361  -1.06979
 Alpha  occ. eigenvalues --   -1.05558  -1.04331  -1.03347  -1.03079  -1.01968
 Alpha  occ. eigenvalues --   -1.00902  -0.96014  -0.78116  -0.75319  -0.70688
 Alpha  occ. eigenvalues --   -0.65150  -0.62544  -0.57515  -0.55453  -0.55138
 Alpha  occ. eigenvalues --   -0.53954  -0.52321  -0.50950  -0.50060  -0.48392
 Alpha  occ. eigenvalues --   -0.47757  -0.46365  -0.45234  -0.44402  -0.43399
 Alpha  occ. eigenvalues --   -0.42215  -0.41064  -0.40917  -0.39839  -0.38430
 Alpha  occ. eigenvalues --   -0.37233  -0.36172  -0.35828  -0.33935  -0.33632
 Alpha  occ. eigenvalues --   -0.32304  -0.30762  -0.29731  -0.29126  -0.27839
 Alpha  occ. eigenvalues --   -0.26940  -0.26124  -0.25592
 Alpha virt. eigenvalues --   -0.04240   0.03870   0.05155   0.06530   0.08687
 Alpha virt. eigenvalues --    0.09778   0.11734   0.12674   0.12987   0.14455
 Alpha virt. eigenvalues --    0.14814   0.15083   0.16506   0.17485   0.18843

 Mulliken charges:
               1
     1  C    0.092333
     2  C    0.028021
     3  O   -0.668422
     4  C    0.272520
     5  C    0.099730
     6  C    0.148076
     7  H    0.157203
     8  H    0.133378
     9  H    0.198381
    10  H    0.130805
    11  H    0.136590
    12  C   -0.100952
    13  H    0.155058
    14  H    0.180037
    15  O   -0.459055
    16  O   -0.619432
    17  H    0.405254
    18  O   -0.629943
    19  H    0.404530
    20  O   -0.663808
    21  H    0.427145
    22  O   -0.695197
    23  H    0.426669
    24  O   -0.803318
    25  H    0.434762
    26  H    0.435463
    27  H    0.404770
    28  O   -0.832502
    29  H    0.391646
    30  H    0.410258
 Sum of Mulliken charges =   0.00000

 Dipole moment (field-independent basis, Debye):
    X=              4.0140    Y=              1.0578    Z=              2.4674  Tot=              4.8290
 Quadrupole moment (field-independent basis, Debye-Ang):
   XX=            -93.0507   YY=            -70.2448   ZZ=            -87.4810
   XY=             -2.7660   XZ=             -5.4792   YZ=             -6.3684

  Exact polarizability: 102.214   0.433  98.617   1.763  -2.111  86.992
 Approx polarizability: 127.445   0.080 136.513   4.958  -3.652 134.535

                      1                      2                      3
                      A                      A                      A
 Frequencies --     17.8809                52.6754                71.8552
 Red. masses --      6.4944                 6.7101                 5.5481
 Frc consts  --      0.0012                 0.0110                 0.0169
 IR Inten    --      0.3327                 1.5213                 8.1740

                      4                      5                      6
                      A                      A                      A
 Frequencies --     82.2936               100.2751               109.8647
 Red. masses --      6.8655                 6.1141                 7.4326
 Frc consts  --      0.0274                 0.0362                 0.0529
 IR Inten    --      2.6268                 6.4806                 1.3539

                      7                      8                      9
                      A                      A                      A
 Frequencies --    130.3470               150.6763               155.5249
 Red. masses --      7.0665                 3.2505                 8.0113
 Frc consts  --      0.0707                 0.0435                 0.1142
 IR Inten    --      2.8205                 5.8726                 8.0086

                     10                     11                     12
                      A                      A                      A
 Frequencies --    177.4265               194.4851               232.3392
 Red. masses --      4.5475                 5.5420                 4.6953
 Frc consts  --      0.0843                 0.1235                 0.1493
 IR Inten    --      7.9281                 2.3580                10.6086

                     13                     14                     15
                      A                      A                      A
 Frequencies --    248.3534               264.5768               281.2488
 Red. masses --      3.6981                 1.3465                 3.6276
 Frc consts  --      0.1344                 0.0555                 0.1691
 IR Inten    --      7.1429                59.1734                62.0429

                     16                     17                     18
                      A                      A                      A
 Frequencies --    288.2074               296.3341               312.9565
 Red. masses --      2.6949                 1.6846                 1.8564
 Frc consts  --      0.1319                 0.0872                 0.1071
 IR Inten    --     34.1859                99.7048                31.5189

                     19                     20                     21
                      A                      A                      A
 Frequencies --    334.9065               344.3216               373.7046
 Red. masses --      1.0416                 1.4630                 1.8920
 Frc consts  --      0.0688                 0.1022                 0.1557
 IR Inten    --     56.1982               173.4730                 1.3516

                     22                     23                     24
                      A                      A                      A
 Frequencies --    382.8990               396.4572               403.8521
 Red. masses --      3.5268                 1.5680                 5.1717
 Frc consts  --      0.3046                 0.1452                 0.4970
 IR Inten    --      6.9926                92.1264                 9.3779

                     25                     26                     27
                      A                      A                      A
 Frequencies --    453.0763               457.8629               503.7298
 Red. masses --      2.6569                 1.3066                 4.5445
 Frc consts  --      0.3213                 0.1614                 0.6794
 IR Inten    --     49.7674                34.9697                52.4835

                     28                     29                     30
                      A                      A                      A
 Frequencies --    519.1029               533.1434               542.3610
 Red. masses --      2.2864                 3.7714                 1.2957
 Frc consts  --      0.3630                 0.6316                 0.2246
 IR Inten    --     42.2377                10.2664                68.0720

                     31                     32                     33
                      A                      A                      A
 Frequencies --    599.1804               610.7611               629.7170
 Red. masses --      3.8880                 4.9238                 1.0875
 Frc consts  --      0.8224                 1.0822                 0.2541
 IR Inten    --     14.7589                33.6472                81.1837

                     34                     35                     36
                      A                      A                      A
 Frequencies --    665.5990               677.6784               892.4102
 Red. masses --      1.0763                 1.1013                 2.8034
 Frc consts  --      0.2809                 0.2980                 1.3154
 IR Inten    --    463.8840                24.5354                 1.0220

                     37                     38                     39
                      A                      A                      A
 Frequencies --    900.9129               912.9562               971.7868
 Red. masses --      1.6494                 1.1310                 2.1445
 Frc consts  --      0.7887                 0.5554                 1.1932
 IR Inten    --     21.3164               143.0103                21.2430

                     40                     41                     42
                      A                      A                      A
 Frequencies --   1010.7625              1050.7566              1066.7421
 Red. masses --      2.5401                 4.6288                 5.0849
 Frc consts  --      1.5290                 3.0111                 3.4092
 IR Inten    --     25.0462                24.5674               193.5029

                     43                     44                     45
                      A                      A                      A
 Frequencies --   1075.6811              1089.9288              1095.1491
 Red. masses --      2.4576                 5.4606                 3.7892
 Frc consts  --      1.6754                 3.8220                 2.6776
 IR Inten    --     59.8536                62.9090                38.3758

                     46                     47                     48
                      A                      A                      A
 Frequencies --   1112.8851              1121.6516              1141.2184
 Red. masses --      2.9588                 3.6213                 2.5198
 Frc consts  --      2.1591                 2.6843                 1.9335
 IR Inten    --     21.5104                26.3365                16.5543

                     49                     50                     51
                      A                      A                      A
 Frequencies --   1199.5895              1250.7977              1262.6294
 Red. masses --      1.4263                 1.1413                 1.2300
 Frc consts  --      1.2093                 1.0520                 1.1553
 IR Inten    --     18.9995                50.0282                40.6574

                     52                     53                     54
                      A                      A                      A
 Frequencies --   1297.8924              1314.7271              1337.7360
 Red. masses --      1.1386                 1.1368                 1.2318
 Frc consts  --      1.1300                 1.1577                 1.2988
 IR Inten    --     27.2198                16.3648                10.1848

                     55                     56                     57
                      A                      A                      A
 Frequencies --   1351.1267              1377.3370              1390.5487
 Red. masses --      1.1823                 1.2637                 1.1949
 Frc consts  --      1.2717                 1.4125                 1.3613
 IR Inten    --      8.4729                 8.3654                33.8422

                     58                     59                     60
                      A                      A                      A
 Frequencies --   1396.0966              1419.6120              1428.1452
 Red. masses --      1.3013                 1.2739                 1.3418
 Frc consts  --      1.4943                 1.5126                 1.6124
 IR Inten    --     21.9834                32.6798                90.9000

                     61                     62                     63
                      A                      A                      A
 Frequencies --   1440.0998              1466.9025              1473.1040
 Red. masses --      1.2904                 1.5251                 1.4141
 Frc consts  --      1.5767                 1.9335                 1.8080
 IR Inten    --      6.0287                26.7032                33.1518

                     64                     65                     66
                      A                      A                      A
 Frequencies --   1495.8806              1538.3697              1711.5638
 Red. masses --      1.1880                 1.0872                 1.0980
 Frc consts  --      1.5662                 1.5160                 1.8951
 IR Inten    --     76.4445                 2.8254                81.6018

                     67                     68                     69
                      A                      A                      A
 Frequencies --   1751.3422              1774.3710              2997.7097
 Red. masses --      1.1156                 6.3546                 1.0828
 Frc consts  --      2.0160                11.7877                 5.7328
 IR Inten    --    192.1708               110.2089                22.3064

                     70                     71                     72
                      A                      A                      A
 Frequencies --   3014.3068              3020.1434              3032.0657
 Red. masses --      1.0823                 1.0832                 1.0887
 Frc consts  --      5.7940                 5.8211                 5.8969
 IR Inten    --      3.9950                12.0507                45.9352

                     73                     74                     75
                      A                      A                      A
 Frequencies --   3042.3435              3050.4892              3119.8549
 Red. masses --      1.0868                 1.0640                 1.1034
 Frc consts  --      5.9269                 5.8334                 6.3277
 IR Inten    --     74.5935                39.0218                20.3144

                     76                     77                     78
                      A                      A                      A
 Frequencies --   3418.3015              3590.0030              3595.5854
 Red. masses --      1.0690                 1.0568                 1.0654
 Frc consts  --      7.3594                 8.0247                 8.1150
 IR Inten    --    405.2031               155.7599               451.0583

                     79                     80                     81
                      A                      A                      A
 Frequencies --   3665.7423              3674.4352              3733.7141
 Red. masses --      1.0593                 1.0550                 1.0662
 Frc consts  --      8.3870                 8.3922                 8.7571
 IR Inten    --    139.7930                50.1101                24.6646

                     82                     83                     84
                      A                      A                      A
 Frequencies --   3765.4833              3776.2581              3804.7323
 Red. masses --      1.0669                 1.0762                 1.0723
 Frc consts  --      8.9125                 9.0419                 9.1459
 IR Inten    --     33.2370                55.0857                79.8891

 - Thermochemistry -
 -------------------
 Temperature   298.150 Kelvin.  Pressure   1.00000 Atm.
 Atom     1 has atomic number  6 and mass  12.00000

 Molecular mass:   216.08452 amu.
 Principal axes and moments of inertia in atomic units:
                           1         2         3
     Eigenvalues --  2461.414643932.070104665.43102
           X            0.99993   0.01157   0.00156
           Y           -0.01154   0.99970  -0.02153
           Z           -0.00181   0.02151   0.99977
 This molecule is an asymmetric top.
 Rotational symmetry number  1.
 Warning -- assumption of classical behavior for rotation
           may cause significant error
 Rotational temperatures (Kelvin)      0.03519     0.02203     0.01857
 Rotational constants (GHZ):           0.73321     0.45898     0.38683
 Zero-point vibrational energy     646088.5 (Joules/Mol)
                                  154.41885 (Kcal/Mol)
 Warning -- explicit consideration of  32 degrees of freedom as
           vibrations may cause significant error
 Vibrational temperatures:     25.73    75.79   103.38   118.40   144.27
          (Kelvin)            158.07   187.54   216.79   223.77   255.28
                              279.82   334.28   357.32   380.67   404.65
                              414.67   426.36   450.27   481.86   495.40
                              537.68   550.91   570.41   581.05   651.87
                              658.76   724.75   746.87   767.07   780.34
                              862.09   878.75   906.02   957.65   975.03
                             1283.98  1296.21  1313.54  1398.18  1454.26
                             1511.80  1534.80  1547.66  1568.16  1575.67
                             1601.19  1613.80  1641.96  1725.94  1799.62
                             1816.64  1867.38  1891.60  1924.70  1943.97
                             1981.68  2000.69  2008.67  2042.50  2054.78
                             2071.98  2110.54  2119.47  2152.24  2213.37
                             2462.56  2519.79  2552.92  4313.03  4336.91
                             4345.31  4362.46  4377.25  4388.97  4488.77
                             4918.17  5165.21  5173.24  5274.18  5286.69
                             5371.98  5417.68  5433.19  5474.15

 Zero-point correction=                           0.246082 (Hartree/Particle)
 Thermal correction to Energy=                    0.264628
 Thermal correction to Enthalpy=                  0.265572
 Thermal correction to Gibbs Free Energy=         0.199972
 Sum of electronic and zero-point Energies=           -839.735984
 Sum of electronic and thermal Energies=              -839.717438
 Sum of electronic and thermal Enthalpies=            -839.716494
 Sum of electronic and thermal Free Energies=         -839.782094

                     E (Thermal)             CV                S
                      KCal/Mol        Cal/Mol-Kelvin    Cal/Mol-Kelvin
 Total                  166.057             67.302            138.067
 Electronic               0.000              0.000              0.000
 Translational            0.889              2.981             42.015
 Rotational               0.889              2.981             32.179
 Vibrational            164.279             61.341             63.873
 Vibration     1          0.593              1.986              6.857
 Vibration     2          0.596              1.977              4.714
 Vibration     3          0.598              1.967              4.102
 Vibration     4          0.600              1.961              3.835
 Vibration     5          0.604              1.949              3.449
 Vibration     6          0.606              1.941              3.271
 Vibration     7          0.612              1.923              2.941
 Vibration     8          0.618              1.902              2.664
 Vibration     9          0.620              1.896              2.604
 Vibration    10          0.628              1.870              2.355
 Vibration    11          0.635              1.848              2.185
 Vibration    12          0.653              1.791              1.861
 Vibration    13          0.662              1.766              1.742
 Vibration    14          0.671              1.738              1.631
 Vibration    15          0.681              1.708              1.526
 Vibration    16          0.685              1.696              1.484
 Vibration    17          0.690              1.681              1.438
 Vibration    18          0.701              1.649              1.347
 Vibration    19          0.716              1.606              1.236
 Vibration    20          0.723              1.587              1.192
 Vibration    21          0.745              1.526              1.065
 Vibration    22          0.752              1.507              1.028
 Vibration    23          0.763              1.478              0.976
 Vibration    24          0.769              1.462              0.949
 Vibration    25          0.812              1.354              0.787
 Vibration    26          0.816              1.344              0.772
 Vibration    27          0.859              1.242              0.649
 Vibration    28          0.874              1.208              0.612
 Vibration    29          0.888              1.177              0.580
 Vibration    30          0.897              1.156              0.560
 Vibration    31          0.957              1.034              0.451
 Vibration    32          0.970              1.009              0.432

 Normal termination of Gaussian 09 at Wed Jan 25 14:55:37 2017.
