 Gaussian 09, Revision E.01,
 Gaussian 09:  ES64L-G09RevE.01 30-Nov-2015

 -------------------------
 # b3lyp/6-31g(d) opt freq
 -------------------------

 -----------------------------------
 glo_2w_alpha_ircf_boat3_B3LYP_631Gd
 -----------------------------------
 Symbolic Z-matrix:
 Charge =  0 Multiplicity = 1

 SCF Done:  E(RB3LYP) =  -839.981489930     A.U. after   14 cycles
 SCF Done:  E(RB3LYP) =  -839.988482935     A.U. after   12 cycles
 SCF Done:  E(RB3LYP) =  -839.991486405     A.U. after   12 cycles
 SCF Done:  E(RB3LYP) =  -839.995328115     A.U. after   12 cycles
 SCF Done:  E(RB3LYP) =  -839.996715451     A.U. after   12 cycles
 SCF Done:  E(RB3LYP) =  -839.997700378     A.U. after   11 cycles
 SCF Done:  E(RB3LYP) =  -839.998021941     A.U. after   11 cycles
 SCF Done:  E(RB3LYP) =  -839.998104950     A.U. after   11 cycles
 SCF Done:  E(RB3LYP) =  -839.998129360     A.U. after    9 cycles
 SCF Done:  E(RB3LYP) =  -839.998137382     A.U. after    9 cycles
 SCF Done:  E(RB3LYP) =  -839.998140912     A.U. after    7 cycles
 SCF Done:  E(RB3LYP) =  -839.998142516     A.U. after    8 cycles
 SCF Done:  E(RB3LYP) =  -839.998143751     A.U. after    7 cycles
 SCF Done:  E(RB3LYP) =  -839.998144377     A.U. after    7 cycles
 SCF Done:  E(RB3LYP) =  -839.998144880     A.U. after    7 cycles
 SCF Done:  E(RB3LYP) =  -839.998145449     A.U. after    7 cycles
 SCF Done:  E(RB3LYP) =  -839.998145876     A.U. after    7 cycles
 SCF Done:  E(RB3LYP) =  -839.998146035     A.U. after    7 cycles
 SCF Done:  E(RB3LYP) =  -839.998146064     A.U. after    6 cycles
 Optimization completed.
    -- Stationary point found.
 Normal termination of Gaussian 09 at Sun Jan 15 21:25:37 2017.

 --------------------------------------------------------------------
 #N Geom=AllCheck Guess=TCheck SCRF=Check GenChk RB3LYP/6-31G(d) Freq
 --------------------------------------------------------------------

 Structure from the checkpoint file:  "/scratch/10464843.yak.local/Gau-29592.chk"
 -----------------------------------
 glo_2w_alpha_ircf_boat3_B3LYP_631Gd
 -----------------------------------
 Charge =  0 Multiplicity = 1

                         Standard orientation:
 ---------------------------------------------------------------------
 Center     Atomic      Atomic             Coordinates (Angstroms)
 Number     Number       Type             X           Y           Z
 ---------------------------------------------------------------------
      1          6           0       -1.177846   -0.200877    1.086233
      2          6           0       -0.580874    1.434872   -0.814554
      3          8           0        0.594431   -0.652884   -0.626950
      4          6           0        0.780431    0.778313   -0.615312
      5          6           0       -0.500070   -1.215409    0.151587
      6          6           0       -1.513853    1.137949    0.369082
      7          1           0       -1.384506    1.931518    1.116493
      8          1           0       -1.021759    0.961693   -1.704602
      9          1           0       -0.049906   -1.986870    0.790568
     10          1           0       -2.113743   -0.665871    1.415946
     11          6           0       -1.478717   -1.892716   -0.821785
     12          1           0       -0.901546   -2.471286   -1.558744
     13          1           0       -2.066567   -1.146170   -1.361183
     14          8           0       -2.424626   -2.700969   -0.133600
     15          1           0       -1.943982   -3.436388    0.278492
     16          8           0       -0.398143    2.821444   -1.035014
     17          1           0       -1.281481    3.189325   -1.198317
     18          8           0       -2.832524    1.174561   -0.186582
     19          1           0       -3.468135    1.100891    0.542947
     20          8           0       -0.414067    0.021386    2.258407
     21          1           0        0.392050    0.491552    1.959222
     22          1           0        1.426600    0.967576   -1.478987
     23          8           0        1.377641    1.233040    0.557894
     24          8           0        3.051998   -1.918154   -0.546169
     25          1           0        2.130642   -1.570438   -0.606285
     26          1           0        3.314517   -2.086858   -1.463692
     27          8           0        3.958317    0.464275    0.374502
     28          1           0        2.353665    1.027744    0.523493
     29          1           0        3.796907   -0.460752    0.053405
     30          1           0        4.338598    0.359948    1.259834
 ---------------------------------------------------------------------

 SCF Done:  E(RB3LYP) =  -839.998146064     A.U. after    1 cycles

 The electronic state is 1-A.
 Alpha  occ. eigenvalues --  -19.17591 -19.16080 -19.15747 -19.15513 -19.15196
 Alpha  occ. eigenvalues --  -19.15055 -19.14725 -19.12588 -10.29408 -10.24539
 Alpha  occ. eigenvalues --  -10.24019 -10.23751 -10.23604 -10.23537  -1.07479
 Alpha  occ. eigenvalues --   -1.03406  -1.02738  -1.02152  -1.01791  -1.01125
 Alpha  occ. eigenvalues --   -1.00291  -0.99756  -0.77730  -0.76971  -0.68679
 Alpha  occ. eigenvalues --   -0.65351  -0.63056  -0.57110  -0.55127  -0.54940
 Alpha  occ. eigenvalues --   -0.53610  -0.53003  -0.51486  -0.50770  -0.48953
 Alpha  occ. eigenvalues --   -0.47626  -0.45806  -0.44827  -0.44033  -0.42385
 Alpha  occ. eigenvalues --   -0.41198  -0.41095  -0.40200  -0.39143  -0.37742
 Alpha  occ. eigenvalues --   -0.36265  -0.35335  -0.34539  -0.33815  -0.31983
 Alpha  occ. eigenvalues --   -0.31643  -0.30312  -0.30066  -0.29437  -0.29094
 Alpha  occ. eigenvalues --   -0.27217  -0.26412  -0.24679
 Alpha virt. eigenvalues --    0.04672   0.05921   0.06773   0.07780   0.09107
 Alpha virt. eigenvalues --    0.09965   0.11383   0.12003   0.13683   0.14710
 Alpha virt. eigenvalues --    0.14761   0.16154   0.16868   0.18783   0.20048

 Mulliken charges:
               1
     1  C    0.105725
     2  C    0.129776
     3  O   -0.560845
     4  C    0.299677
     5  C    0.094647
     6  C    0.066851
     7  H    0.155599
     8  H    0.140419
     9  H    0.137715
    10  H    0.148971
    11  C   -0.058401
    12  H    0.129534
    13  H    0.174249
    14  O   -0.609931
    15  H    0.392590
    16  O   -0.629552
    17  H    0.402482
    18  O   -0.642470
    19  H    0.399950
    20  O   -0.665759
    21  H    0.419608
    22  H    0.150415
    23  O   -0.658281
    24  O   -0.819027
    25  H    0.440470
    26  H    0.399705
    27  O   -0.820001
    28  H    0.445009
    29  H    0.430562
    30  H    0.400312
 Sum of Mulliken charges =  -0.00000

 Dipole moment (field-independent basis, Debye):
    X=              0.5199    Y=             -1.9288    Z=             -1.1084  Tot=              2.2846
 Quadrupole moment (field-independent basis, Debye-Ang):
   XX=            -78.9768   YY=            -82.2457   ZZ=            -82.5882
   XY=             -9.7101   XZ=             -1.7001   YZ=              2.8322

  Exact polarizability: 102.687   0.656  95.747  -0.535  -0.051  84.255
 Approx polarizability: 133.260   2.397 125.631   0.239  -0.326 123.732

                      1                      2                      3
                      A                      A                      A
 Frequencies --     30.9122                38.8265                52.9746
 Red. masses --      5.3284                 6.0004                 5.4655
 Frc consts  --      0.0030                 0.0053                 0.0090
 IR Inten    --      0.7621                 0.3223                 1.3226

                      4                      5                      6
                      A                      A                      A
 Frequencies --     76.5117                88.5916               126.4380
 Red. masses --      5.5425                 7.1170                 3.2725
 Frc consts  --      0.0191                 0.0329                 0.0308
 IR Inten    --      3.8578                 0.4806                 8.1688

                      7                      8                      9
                      A                      A                      A
 Frequencies --    169.3116               174.3249               186.2489
 Red. masses --      5.8848                 4.6840                 4.2091
 Frc consts  --      0.0994                 0.0839                 0.0860
 IR Inten    --      0.8025                27.9663                 1.3701

                     10                     11                     12
                      A                      A                      A
 Frequencies --    228.3380               253.5761               262.6498
 Red. masses --      6.0916                 3.7922                 1.2323
 Frc consts  --      0.1871                 0.1437                 0.0501
 IR Inten    --      6.9542                29.0115                83.4072

                     13                     14                     15
                      A                      A                      A
 Frequencies --    263.7404               283.9780               292.9008
 Red. masses --      3.4973                 4.8780                 6.0604
 Frc consts  --      0.1433                 0.2318                 0.3063
 IR Inten    --     12.6688                33.3633                 3.6766

                     16                     17                     18
                      A                      A                      A
 Frequencies --    325.8755               341.7894               348.7932
 Red. masses --      1.8263                 1.2570                 1.3739
 Frc consts  --      0.1143                 0.0865                 0.0985
 IR Inten    --     66.3809               121.7160                71.6828

                     19                     20                     21
                      A                      A                      A
 Frequencies --    363.2939               375.8410               380.2937
 Red. masses --      3.1339                 1.2074                 1.3975
 Frc consts  --      0.2437                 0.1005                 0.1191
 IR Inten    --     43.9054                89.8611                87.4871

                     22                     23                     24
                      A                      A                      A
 Frequencies --    394.7151               415.8022               454.6804
 Red. masses --      1.4324                 3.1280                 3.8767
 Frc consts  --      0.1315                 0.3186                 0.4722
 IR Inten    --     59.1578                26.9442                35.3058

                     25                     26                     27
                      A                      A                      A
 Frequencies --    499.2042               513.6403               522.4926
 Red. masses --      3.5707                 1.3845                 4.2777
 Frc consts  --      0.5243                 0.2152                 0.6880
 IR Inten    --     25.5496                24.4928                12.6321

                     28                     29                     30
                      A                      A                      A
 Frequencies --    565.1200               607.6353               664.5766
 Red. masses --      4.4329                 4.7319                 1.2125
 Frc consts  --      0.8341                 1.0294                 0.3155
 IR Inten    --     25.1274                34.5076                48.7421

                     31                     32                     33
                      A                      A                      A
 Frequencies --    692.3800               756.4376               810.2538
 Red. masses --      3.4218                 1.1232                 3.2887
 Frc consts  --      0.9665                 0.3787                 1.2721
 IR Inten    --     20.4272                61.1166                91.3836

                     34                     35                     36
                      A                      A                      A
 Frequencies --    829.7450               836.9811               911.1703
 Red. masses --      2.8266                 1.0944                 3.0940
 Frc consts  --      1.1466                 0.4517                 1.5135
 IR Inten    --      6.2140               130.7087                35.7500

                     37                     38                     39
                      A                      A                      A
 Frequencies --    945.5983               992.7820              1010.4449
 Red. masses --      3.7366                 2.0888                 3.2040
 Frc consts  --      1.9685                 1.2130                 1.9274
 IR Inten    --     85.1188                 5.5765               217.1922

                     40                     41                     42
                      A                      A                      A
 Frequencies --   1032.8631              1051.2701              1079.3279
 Red. masses --      1.1533                 2.7421                 3.7526
 Frc consts  --      0.7249                 1.7855                 2.5757
 IR Inten    --    134.6448                41.7189               216.9174

                     43                     44                     45
                      A                      A                      A
 Frequencies --   1088.4193              1094.8202              1110.4748
 Red. masses --      5.3811                 3.2009                 2.9475
 Frc consts  --      3.7559                 2.2605                 2.1415
 IR Inten    --     72.1910                 3.3327                47.9305

                     46                     47                     48
                      A                      A                      A
 Frequencies --   1119.1048              1139.4822              1158.2240
 Red. masses --      2.0587                 4.1908                 3.1081
 Frc consts  --      1.5191                 3.2060                 2.4566
 IR Inten    --     32.3180                50.1540                89.2993

                     49                     50                     51
                      A                      A                      A
 Frequencies --   1206.4621              1235.2574              1268.1321
 Red. masses --      1.3341                 1.2244                 1.1419
 Frc consts  --      1.1441                 1.1008                 1.0819
 IR Inten    --     25.1062                52.4690                37.0012

                     52                     53                     54
                      A                      A                      A
 Frequencies --   1294.3674              1314.4916              1342.7889
 Red. masses --      1.6136                 1.1732                 1.2127
 Frc consts  --      1.5928                 1.1944                 1.2883
 IR Inten    --      3.4442                11.2927                18.1564

                     55                     56                     57
                      A                      A                      A
 Frequencies --   1355.3892              1365.5104              1379.6312
 Red. masses --      1.2689                 1.2636                 1.2768
 Frc consts  --      1.3735                 1.3882                 1.4318
 IR Inten    --     24.4919                32.5978                 8.7117

                     58                     59                     60
                      A                      A                      A
 Frequencies --   1396.3983              1406.4165              1418.8959
 Red. masses --      1.2847                 1.4488                 1.2582
 Frc consts  --      1.4760                 1.6885                 1.4924
 IR Inten    --     15.3189                13.1438                17.5761

                     61                     62                     63
                      A                      A                      A
 Frequencies --   1442.0492              1458.9635              1461.9048
 Red. masses --      1.2491                 1.5623                 1.3982
 Frc consts  --      1.5304                 1.9593                 1.7606
 IR Inten    --     18.9253                13.8483                 1.1572

                     64                     65                     66
                      A                      A                      A
 Frequencies --   1502.0836              1533.2171              1570.6965
 Red. masses --      1.2003                 1.0861                 1.2820
 Frc consts  --      1.5957                 1.5043                 1.8634
 IR Inten    --     65.1347                 2.8667                55.0651

                     67                     68                     69
                      A                      A                      A
 Frequencies --   1721.2367              1737.2460              3018.9802
 Red. masses --      1.0796                 1.0686                 1.0764
 Frc consts  --      1.8845                 1.9002                 5.7804
 IR Inten    --     86.0613                27.5709                19.4537

                     70                     71                     72
                      A                      A                      A
 Frequencies --   3020.4097              3040.8768              3051.9875
 Red. masses --      1.0784                 1.0851                 1.0857
 Frc consts  --      5.7964                 5.9120                 5.9582
 IR Inten    --     62.4734                34.2143                32.1219

                     73                     74                     75
                      A                      A                      A
 Frequencies --   3081.5169              3088.6228              3138.1715
 Red. masses --      1.0857                 1.0879                 1.0945
 Frc consts  --      6.0743                 6.1146                 6.3506
 IR Inten    --     30.5355                28.5470                15.8780

                     76                     77                     78
                      A                      A                      A
 Frequencies --   3229.0066              3380.2623              3481.1096
 Red. masses --      1.0693                 1.0623                 1.0592
 Frc consts  --      6.5690                 7.1514                 7.5625
 IR Inten    --    782.8477               987.6440               798.7745

                     79                     80                     81
                      A                      A                      A
 Frequencies --   3574.7814              3733.6808              3739.1852
 Red. masses --      1.0652                 1.0662                 1.0661
 Frc consts  --      8.0203                 8.7568                 8.7821
 IR Inten    --    167.4348                14.2834                14.7674

                     82                     83                     84
                      A                      A                      A
 Frequencies --   3740.4294              3795.1617              3797.6486
 Red. masses --      1.0661                 1.0674                 1.0686
 Frc consts  --      8.7884                 9.0579                 9.0802
 IR Inten    --     29.0265                52.8321                70.6867

 - Thermochemistry -
 -------------------
 Temperature   298.150 Kelvin.  Pressure   1.00000 Atm.
 Atom     1 has atomic number  6 and mass  12.00000

 Molecular mass:   216.08452 amu.
 Principal axes and moments of inertia in atomic units:
                           1         2         3
     Eigenvalues --  2483.630523617.775624830.67401
           X            0.99986  -0.01656  -0.00026
           Y            0.01656   0.99980   0.01099
           Z            0.00007  -0.01100   0.99994
 This molecule is an asymmetric top.
 Rotational symmetry number  1.
 Warning -- assumption of classical behavior for rotation
           may cause significant error
 Rotational temperatures (Kelvin)      0.03487     0.02394     0.01793
 Rotational constants (GHZ):           0.72665     0.49885     0.37360
 Zero-point vibrational energy     653674.4 (Joules/Mol)
                                  156.23193 (Kcal/Mol)
 Warning -- explicit consideration of  29 degrees of freedom as
           vibrations may cause significant error
 Vibrational temperatures:     44.48    55.86    76.22   110.08   127.46
          (Kelvin)            181.92   243.60   250.81   267.97   328.53
                              364.84   377.89   379.46   408.58   421.42
                              468.86   491.76   501.83   522.70   540.75
                              547.16   567.91   598.25   654.18   718.24
                              739.01   751.75   813.08   874.25   956.18
                              996.18  1088.34  1165.77  1193.82  1204.23
                             1310.97  1360.50  1428.39  1453.80  1486.06
                             1512.54  1552.91  1565.99  1575.20  1597.72
                             1610.14  1639.46  1666.42  1735.83  1777.26
                             1824.56  1862.30  1891.26  1931.97  1950.10
                             1964.66  1984.98  2009.10  2023.52  2041.47
                             2074.78  2099.12  2103.35  2161.16  2205.95
                             2259.88  2476.47  2499.51  4343.63  4345.69
                             4375.14  4391.12  4433.61  4443.83  4515.12
                             4645.81  4863.44  5008.53  5143.31  5371.93
                             5379.85  5381.64  5460.38  5463.96

 Zero-point correction=                           0.248971 (Hartree/Particle)
 Thermal correction to Energy=                    0.266279
 Thermal correction to Enthalpy=                  0.267223
 Thermal correction to Gibbs Free Energy=         0.204130
 Sum of electronic and zero-point Energies=           -839.749175
 Sum of electronic and thermal Energies=              -839.731868
 Sum of electronic and thermal Enthalpies=            -839.730923
 Sum of electronic and thermal Free Energies=         -839.794016

                     E (Thermal)             CV                S
                      KCal/Mol        Cal/Mol-Kelvin    Cal/Mol-Kelvin
 Total                  167.092             63.920            132.790
 Electronic               0.000              0.000              0.000
 Translational            0.889              2.981             42.015
 Rotational               0.889              2.981             32.140
 Vibrational            165.315             57.959             58.635
 Vibration     1          0.594              1.984              5.770
 Vibration     2          0.594              1.981              5.318
 Vibration     3          0.596              1.976              4.703
 Vibration     4          0.599              1.965              3.978
 Vibration     5          0.601              1.957              3.691
 Vibration     6          0.611              1.927              3.000
 Vibration     7          0.625              1.880              2.443
 Vibration     8          0.627              1.874              2.388
 Vibration     9          0.632              1.859              2.265
 Vibration    10          0.651              1.798              1.892
 Vibration    11          0.665              1.757              1.706
 Vibration    12          0.670              1.741              1.644
 Vibration    13          0.670              1.739              1.637
 Vibration    14          0.682              1.703              1.510
 Vibration    15          0.688              1.687              1.457
 Vibration    16          0.710              1.624              1.280
 Vibration    17          0.721              1.592              1.204
 Vibration    18          0.726              1.578              1.172
 Vibration    19          0.737              1.548              1.108
 Vibration    20          0.747              1.522              1.056
 Vibration    21          0.750              1.512              1.038
 Vibration    22          0.762              1.481              0.982
 Vibration    23          0.779              1.436              0.906
 Vibration    24          0.813              1.351              0.782
 Vibration    25          0.855              1.252              0.660
 Vibration    26          0.869              1.220              0.625
 Vibration    27          0.877              1.200              0.604
 Vibration    28          0.921              1.107              0.514
 Vibration    29          0.966              1.016              0.437

 Optimization completed.
    -- Stationary point found.
 Normal termination of Gaussian 09 at Sun Jan 15 21:59:10 2017.
