 Gaussian 09, Revision E.01,
 Gaussian 09:  ES64L-G09RevE.01 30-Nov-2015

 -------------------------
 # b3lyp/6-31g(d) opt freq
 -------------------------

 ----------------------------------
 glo_2w_beta_ircf_boat3_B3LYP_631Gd
 ----------------------------------
 Symbolic Z-matrix:
 Charge =  0 Multiplicity = 1

 SCF Done:  E(RB3LYP) =  -839.967875418     A.U. after   14 cycles
 SCF Done:  E(RB3LYP) =  -839.795099681     A.U. after   14 cycles
 SCF Done:  E(RB3LYP) =  -839.973079140     A.U. after   12 cycles
 SCF Done:  E(RB3LYP) =  -839.977891437     A.U. after   12 cycles
 SCF Done:  E(RB3LYP) =  -839.978734179     A.U. after   12 cycles
 SCF Done:  E(RB3LYP) =  -839.979841328     A.U. after   12 cycles
 SCF Done:  E(RB3LYP) =  -839.984322816     A.U. after   12 cycles
 SCF Done:  E(RB3LYP) =  -839.988041923     A.U. after   11 cycles
 SCF Done:  E(RB3LYP) =  -839.990552298     A.U. after   11 cycles
 SCF Done:  E(RB3LYP) =  -839.991212040     A.U. after   11 cycles
 SCF Done:  E(RB3LYP) =  -839.993834814     A.U. after    9 cycles
 SCF Done:  E(RB3LYP) =  -839.993841382     A.U. after    8 cycles
 SCF Done:  E(RB3LYP) =  -839.993844459     A.U. after    9 cycles
 SCF Done:  E(RB3LYP) =  -839.993845904     A.U. after    8 cycles
 SCF Done:  E(RB3LYP) =  -839.993847291     A.U. after    8 cycles
 SCF Done:  E(RB3LYP) =  -839.993848277     A.U. after    7 cycles
 SCF Done:  E(RB3LYP) =  -839.993849469     A.U. after    8 cycles
 SCF Done:  E(RB3LYP) =  -839.993850135     A.U. after    7 cycles
 SCF Done:  E(RB3LYP) =  -839.993850491     A.U. after    8 cycles
 Optimization completed.
    -- Stationary point found.
 Normal termination of Gaussian 09 at Mon Jan 16 01:24:17 2017.

 --------------------------------------------------------------------
 #N Geom=AllCheck Guess=TCheck SCRF=Check GenChk RB3LYP/6-31G(d) Freq
 --------------------------------------------------------------------

 Structure from the checkpoint file:  "/scratch/10464841.yak.local/Gau-15998.chk"
 ----------------------------------
 glo_2w_beta_ircf_boat3_B3LYP_631Gd
 ----------------------------------
 Charge =  0 Multiplicity = 1

                         Standard orientation:
 ---------------------------------------------------------------------
 Center     Atomic      Atomic             Coordinates (Angstroms)
 Number     Number       Type             X           Y           Z
 ---------------------------------------------------------------------
      1          6           0        1.239713    0.183444    0.895731
      2          6           0       -0.423489    1.722926   -0.201664
      3          8           0       -0.090439   -0.611363   -1.000217
      4          6           0       -0.778295    0.665416   -1.287516
      5          6           0        1.242331   -0.401091   -0.537496
      6          6           0       -0.006428    1.066784    1.127660
      7          1           0       -0.382073    1.017781   -2.246643
      8          1           0        0.290750    1.863232    1.819770
      9          1           0       -1.315981    2.338831   -0.043185
     10          1           0        1.729650    0.336151   -1.192623
     11          1           0        1.218231   -0.628946    1.637951
     12          6           0        2.019616   -1.710947   -0.625362
     13          1           0        1.983898   -2.115913   -1.644618
     14          1           0        1.584977   -2.455434    0.051046
     15          8           0       -2.110165    0.397528   -1.461967
     16          8           0        3.368180   -1.506511   -0.182336
     17          1           0        3.878705   -1.174438   -0.937157
     18          8           0        0.624971    2.563706   -0.688472
     19          1           0        1.418911    2.416428   -0.144296
     20          8           0       -1.074272    0.380802    1.749601
     21          1           0       -1.137734   -0.537042    1.424889
     22          8           0        2.400529    0.995152    1.090799
     23          1           0        3.158618    0.410548    0.906542
     24          8           0       -1.660708   -2.189753    0.570596
     25          1           0       -3.306611   -1.276212    0.637957
     26          1           0       -1.163639   -1.833425   -0.202627
     27          1           0       -1.327608   -3.082972    0.739346
     28          8           0       -3.876474   -0.514542    0.407251
     29          1           0       -4.442222   -0.848103   -0.306518
     30          1           0       -2.601540    0.290179   -0.609995
 ---------------------------------------------------------------------

 SCF Done:  E(RB3LYP) =  -839.993850491     A.U. after    1 cycles

 The electronic state is 1-A.
 Alpha  occ. eigenvalues --  -19.18623 -19.17773 -19.17337 -19.16215 -19.14493
 Alpha  occ. eigenvalues --  -19.13964 -19.13775 -19.13389 -10.28218 -10.26086
 Alpha  occ. eigenvalues --  -10.25229 -10.24655 -10.23670 -10.22958  -1.07209
 Alpha  occ. eigenvalues --   -1.05384  -1.03551  -1.03409  -1.01270  -1.00971
 Alpha  occ. eigenvalues --   -1.00500  -0.99753  -0.78275  -0.75646  -0.70003
 Alpha  occ. eigenvalues --   -0.65052  -0.63722  -0.59115  -0.55982  -0.54973
 Alpha  occ. eigenvalues --   -0.54608  -0.52353  -0.51925  -0.50869  -0.50355
 Alpha  occ. eigenvalues --   -0.48388  -0.45973  -0.45500  -0.43979  -0.42491
 Alpha  occ. eigenvalues --   -0.41689  -0.40916  -0.40327  -0.38980  -0.37906
 Alpha  occ. eigenvalues --   -0.36659  -0.36107  -0.34703  -0.34441  -0.33869
 Alpha  occ. eigenvalues --   -0.31914  -0.30693  -0.30424  -0.29847  -0.28836
 Alpha  occ. eigenvalues --   -0.27002  -0.26060  -0.24732
 Alpha virt. eigenvalues --    0.02539   0.03872   0.07526   0.08260   0.09599
 Alpha virt. eigenvalues --    0.11367   0.11864   0.12721   0.12860   0.14604
 Alpha virt. eigenvalues --    0.15061   0.16370   0.16817   0.18192   0.18941

 Mulliken charges:
               1
     1  C    0.066344
     2  C    0.069680
     3  O   -0.559365
     4  C    0.345118
     5  C    0.118676
     6  C    0.097784
     7  H    0.150818
     8  H    0.162250
     9  H    0.157915
    10  H    0.136089
    11  H    0.134860
    12  C   -0.075025
    13  H    0.153845
    14  H    0.145795
    15  O   -0.653930
    16  O   -0.617578
    17  H    0.405861
    18  O   -0.660925
    19  H    0.416423
    20  O   -0.663487
    21  H    0.421929
    22  O   -0.648853
    23  H    0.406195
    24  O   -0.820287
    25  H    0.432460
    26  H    0.436034
    27  H    0.408047
    28  O   -0.793467
    29  H    0.395474
    30  H    0.431319
 Sum of Mulliken charges =  -0.00000

 Dipole moment (field-independent basis, Debye):
    X=              2.9834    Y=             -5.1404    Z=             -1.8190  Tot=              6.2155
 Quadrupole moment (field-independent basis, Debye-Ang):
   XX=            -77.6381   YY=            -79.2753   ZZ=            -89.8632
   XY=              5.0858   XZ=             -2.4834   YZ=              1.3762

  Exact polarizability: 107.403   0.065  93.308  -0.343  -1.646  81.530
 Approx polarizability: 141.473   4.593 128.313  -0.827  -5.022 118.338

                      1                      2                      3
                      A                      A                      A
 Frequencies --     29.5733                62.4402                70.7240
 Red. masses --      6.7785                 5.3440                 5.7900
 Frc consts  --      0.0035                 0.0123                 0.0171
 IR Inten    --      2.6815                 2.7897                 2.4488

                      4                      5                      6
                      A                      A                      A
 Frequencies --     82.1123               110.3029               145.7378
 Red. masses --      7.1312                 4.1413                 3.5868
 Frc consts  --      0.0283                 0.0297                 0.0449
 IR Inten    --     14.2206                 7.2509                16.0750

                      7                      8                      9
                      A                      A                      A
 Frequencies --    152.7488               155.6560               173.7175
 Red. masses --      3.7324                 1.4538                 5.8939
 Frc consts  --      0.0513                 0.0208                 0.1048
 IR Inten    --     10.4864                48.4809                 1.9639

                     10                     11                     12
                      A                      A                      A
 Frequencies --    198.1097               217.2502               236.4474
 Red. masses --      4.7755                 4.0776                 4.4126
 Frc consts  --      0.1104                 0.1134                 0.1454
 IR Inten    --     12.3564                13.5197                 6.0019

                     13                     14                     15
                      A                      A                      A
 Frequencies --    246.4120               263.4543               281.5844
 Red. masses --      3.6203                 3.5706                 1.2847
 Frc consts  --      0.1295                 0.1460                 0.0600
 IR Inten    --     13.2542                 4.1709               101.7868

                     16                     17                     18
                      A                      A                      A
 Frequencies --    303.0653               313.6520               346.2107
 Red. masses --      2.0198                 1.7339                 4.1608
 Frc consts  --      0.1093                 0.1005                 0.2938
 IR Inten    --     68.8596                56.0912                92.8957

                     19                     20                     21
                      A                      A                      A
 Frequencies --    367.1280               389.7452               402.6417
 Red. masses --      3.5887                 2.4659                 1.6978
 Frc consts  --      0.2850                 0.2207                 0.1622
 IR Inten    --     20.7485                20.8165                46.2921

                     22                     23                     24
                      A                      A                      A
 Frequencies --    433.7373               447.4254               451.2251
 Red. masses --      1.4100                 3.4387                 1.5577
 Frc consts  --      0.1563                 0.4056                 0.1869
 IR Inten    --     83.8532                 5.8270                92.1752

                     25                     26                     27
                      A                      A                      A
 Frequencies --    470.8464               513.2779               532.6550
 Red. masses --      2.4123                 4.2340                 3.8236
 Frc consts  --      0.3151                 0.6572                 0.6392
 IR Inten    --      4.4349                36.9450                 3.1629

                     28                     29                     30
                      A                      A                      A
 Frequencies --    571.5032               584.6369               596.7522
 Red. masses --      3.6000                 1.1785                 1.1624
 Frc consts  --      0.6928                 0.2373                 0.2439
 IR Inten    --      5.2349               194.7335               181.0596

                     31                     32                     33
                      A                      A                      A
 Frequencies --    661.1749               678.1595               715.9370
 Red. masses --      2.7836                 1.1381                 1.2964
 Frc consts  --      0.7169                 0.3084                 0.3915
 IR Inten    --     25.7122               198.5139               105.3561

                     34                     35                     36
                      A                      A                      A
 Frequencies --    797.5054               857.8184               885.4000
 Red. masses --      3.7251                 3.0006                 2.3626
 Frc consts  --      1.3959                 1.3009                 1.0912
 IR Inten    --     69.8013                25.1941                49.1136

                     37                     38                     39
                      A                      A                      A
 Frequencies --    927.7647               935.5697              1005.2075
 Red. masses --      1.2521                 2.0710                 2.4738
 Frc consts  --      0.6350                 1.0680                 1.4727
 IR Inten    --    126.8223                41.0792                85.5862

                     40                     41                     42
                      A                      A                      A
 Frequencies --   1043.4355              1069.7801              1082.3215
 Red. masses --      4.5425                 5.1054                 2.3787
 Frc consts  --      2.9139                 3.4425                 1.6417
 IR Inten    --    101.5444                60.9945                10.0723

                     43                     44                     45
                      A                      A                      A
 Frequencies --   1084.6573              1100.1394              1113.2566
 Red. masses --      5.6414                 3.6181                 2.8746
 Frc consts  --      3.9104                 2.5800                 2.0990
 IR Inten    --    292.1081                 5.8267                21.1639

                     46                     47                     48
                      A                      A                      A
 Frequencies --   1130.7451              1140.3353              1178.3449
 Red. masses --      2.9540                 2.5405                 1.4599
 Frc consts  --      2.2253                 1.9464                 1.1943
 IR Inten    --     15.6134                 7.3148                 8.7941

                     49                     50                     51
                      A                      A                      A
 Frequencies --   1222.3685              1253.4537              1263.1266
 Red. masses --      2.3267                 1.2902                 1.2546
 Frc consts  --      2.0483                 1.1943                 1.1793
 IR Inten    --    158.6253                11.7293                41.2915

                     52                     53                     54
                      A                      A                      A
 Frequencies --   1321.6673              1337.7168              1339.9952
 Red. masses --      1.2824                 1.2668                 1.2592
 Frc consts  --      1.3198                 1.3356                 1.3322
 IR Inten    --      6.4928                41.9599                12.7302

                     55                     56                     57
                      A                      A                      A
 Frequencies --   1348.0313              1362.1326              1397.6049
 Red. masses --      1.2731                 1.1692                 1.2320
 Frc consts  --      1.3631                 1.2782                 1.4178
 IR Inten    --      5.5658                 7.6268                31.0014

                     58                     59                     60
                      A                      A                      A
 Frequencies --   1402.9961              1412.5061              1418.3024
 Red. masses --      1.3189                 1.2885                 1.3783
 Frc consts  --      1.5296                 1.5146                 1.6335
 IR Inten    --      0.2725                15.0934                43.6859

                     61                     62                     63
                      A                      A                      A
 Frequencies --   1428.1649              1442.4327              1453.8011
 Red. masses --      1.3922                 1.2815                 1.2932
 Frc consts  --      1.6730                 1.5709                 1.6104
 IR Inten    --      6.2925                32.6938                36.9006

                     64                     65                     66
                      A                      A                      A
 Frequencies --   1461.0124              1471.3812              1535.1397
 Red. masses --      1.3328                 1.3528                 1.0861
 Frc consts  --      1.6762                 1.7256                 1.5080
 IR Inten    --     94.1829               130.6475                 1.1602

                     67                     68                     69
                      A                      A                      A
 Frequencies --   1703.5250              1728.3000              3012.2440
 Red. masses --      1.0765                 1.0775                 1.0836
 Frc consts  --      1.8406                 1.8962                 5.7930
 IR Inten    --     84.5601                30.7415                20.3902

                     70                     71                     72
                      A                      A                      A
 Frequencies --   3025.7078              3050.5506              3071.0545
 Red. masses --      1.0851                 1.0592                 1.0856
 Frc consts  --      5.8529                 5.8073                 6.0324
 IR Inten    --     32.5841                41.7441                27.8754

                     73                     74                     75
                      A                      A                      A
 Frequencies --   3076.0774              3080.3208              3103.9249
 Red. masses --      1.0878                 1.0879                 1.1082
 Frc consts  --      6.0642                 6.0816                 6.2905
 IR Inten    --     51.9867                28.4103                38.7042

                     76                     77                     78
                      A                      A                      A
 Frequencies --   3403.7712              3476.3273              3611.3514
 Red. masses --      1.0692                 1.0605                 1.0567
 Frc consts  --      7.2984                 7.5510                 8.1194
 IR Inten    --    330.7919               573.6009               189.6344

                     79                     80                     81
                      A                      A                      A
 Frequencies --   3652.6582              3671.3438              3683.0765
 Red. masses --      1.0640                 1.0665                 1.0666
 Frc consts  --      8.3641                 8.4699                 8.5244
 IR Inten    --    345.5812               142.9918                25.3279

                     82                     83                     84
                      A                      A                      A
 Frequencies --   3749.5802              3794.7249              3813.2406
 Red. masses --      1.0666                 1.0734                 1.0699
 Frc consts  --      8.8356                 9.1070                 9.1661
 IR Inten    --     29.6237                72.3299                69.8428

 - Thermochemistry -
 -------------------
 Temperature   298.150 Kelvin.  Pressure   1.00000 Atm.
 Atom     1 has atomic number  6 and mass  12.00000

 Molecular mass:   216.08452 amu.
 Principal axes and moments of inertia in atomic units:
                           1         2         3
     Eigenvalues --  2118.858993714.051674346.65656
           X            0.99995   0.00685  -0.00683
           Y           -0.00682   0.99997   0.00348
           Z            0.00686  -0.00344   0.99997
 This molecule is an asymmetric top.
 Rotational symmetry number  1.
 Warning -- assumption of classical behavior for rotation
           may cause significant error
 Rotational temperatures (Kelvin)      0.04088     0.02332     0.01993
 Rotational constants (GHZ):           0.85175     0.48592     0.41520
 Zero-point vibrational energy     652789.8 (Joules/Mol)
                                  156.02051 (Kcal/Mol)
 Warning -- explicit consideration of  30 degrees of freedom as
           vibrations may cause significant error
 Vibrational temperatures:     42.55    89.84   101.76   118.14   158.70
          (Kelvin)            209.68   219.77   223.95   249.94   285.04
                              312.57   340.19   354.53   379.05   405.14
                              436.04   451.27   498.12   528.21   560.76
                              579.31   624.05   643.74   649.21   677.44
                              738.49   766.37   822.26   841.16   858.59
                              951.28   975.72  1030.07  1147.43  1234.21
                             1273.89  1334.84  1346.07  1446.27  1501.27
                             1539.17  1557.22  1560.58  1582.85  1601.73
                             1626.89  1640.69  1695.37  1758.71  1803.44
                             1817.36  1901.58  1924.67  1927.95  1939.51
                             1959.80  2010.84  2018.60  2032.28  2040.62
                             2054.81  2075.34  2091.69  2102.07  2116.99
                             2208.72  2450.99  2486.64  4333.94  4353.31
                             4389.06  4418.56  4425.78  4431.89  4465.85
                             4897.26  5001.65  5195.92  5255.35  5282.24
                             5299.12  5394.80  5459.76  5486.40

 Zero-point correction=                           0.248635 (Hartree/Particle)
 Thermal correction to Energy=                    0.266161
 Thermal correction to Enthalpy=                  0.267106
 Thermal correction to Gibbs Free Energy=         0.204295
 Sum of electronic and zero-point Energies=           -839.745216
 Sum of electronic and thermal Energies=              -839.727689
 Sum of electronic and thermal Enthalpies=            -839.726745
 Sum of electronic and thermal Free Energies=         -839.789555

                     E (Thermal)             CV                S
                      KCal/Mol        Cal/Mol-Kelvin    Cal/Mol-Kelvin
 Total                  167.019             64.715            132.196
 Electronic               0.000              0.000              0.000
 Translational            0.889              2.981             42.015
 Rotational               0.889              2.981             31.903
 Vibrational            165.241             58.754             58.278
 Vibration     1          0.593              1.984              5.858
 Vibration     2          0.597              1.972              4.379
 Vibration     3          0.598              1.968              4.133
 Vibration     4          0.600              1.961              3.840
 Vibration     5          0.606              1.941              3.264
 Vibration     6          0.617              1.907              2.727
 Vibration     7          0.619              1.900              2.638
 Vibration     8          0.620              1.896              2.602
 Vibration     9          0.627              1.875              2.395
 Vibration    10          0.637              1.843              2.151
 Vibration    11          0.646              1.815              1.982
 Vibration    12          0.655              1.785              1.829
 Vibration    13          0.661              1.769              1.756
 Vibration    14          0.670              1.740              1.639
 Vibration    15          0.681              1.708              1.524
 Vibration    16          0.695              1.668              1.400
 Vibration    17          0.702              1.648              1.343
 Vibration    18          0.724              1.583              1.183
 Vibration    19          0.740              1.540              1.092
 Vibration    20          0.758              1.492              1.001
 Vibration    21          0.768              1.464              0.953
 Vibration    22          0.794              1.397              0.847
 Vibration    23          0.807              1.367              0.804
 Vibration    24          0.810              1.358              0.792
 Vibration    25          0.828              1.315              0.735
 Vibration    26          0.868              1.221              0.626
 Vibration    27          0.888              1.178              0.581
 Vibration    28          0.928              1.093              0.501
 Vibration    29          0.942              1.065              0.477
 Vibration    30          0.955              1.039              0.455

 Normal termination of Gaussian 09 at Mon Jan 16 01:57:18 2017.
