 Gaussian 09, Revision E.01,
 Gaussian 09:  ES64L-G09RevE.01 30-Nov-2015

 ---------------------------------------------------------
 # opt=maxcycle=1000 freq b3lyp/6-31g(d) geom=connectivity
 ---------------------------------------------------------

 -------------------------
 boat5_Alpha_B3LYP_6-31G_d
 -------------------------
 Symbolic Z-matrix:
 Charge =  0 Multiplicity = 1

 SCF Done:  E(RB3LYP) =  -839.851039461     A.U. after   15 cycles
 SCF Done:  E(RB3LYP) =  -839.874705229     A.U. after   13 cycles
 SCF Done:  E(RB3LYP) =  -839.903258197     A.U. after   13 cycles
 SCF Done:  E(RB3LYP) =  -839.912049841     A.U. after   13 cycles
 SCF Done:  E(RB3LYP) =  -839.930667258     A.U. after   12 cycles
 SCF Done:  E(RB3LYP) =  -839.931330822     A.U. after   13 cycles
 SCF Done:  E(RB3LYP) =  -839.936434340     A.U. after   13 cycles
 SCF Done:  E(RB3LYP) =  -839.937924325     A.U. after   12 cycles
 SCF Done:  E(RB3LYP) =  -839.940852942     A.U. after   12 cycles
 SCF Done:  E(RB3LYP) =  -839.939469452     A.U. after   13 cycles
 SCF Done:  E(RB3LYP) =  -840.001583358     A.U. after   10 cycles
 SCF Done:  E(RB3LYP) =  -840.001594097     A.U. after   10 cycles
 SCF Done:  E(RB3LYP) =  -840.001597566     A.U. after    9 cycles
 SCF Done:  E(RB3LYP) =  -840.001599306     A.U. after    8 cycles
 SCF Done:  E(RB3LYP) =  -840.001600949     A.U. after    8 cycles
 SCF Done:  E(RB3LYP) =  -840.001602227     A.U. after    8 cycles
 SCF Done:  E(RB3LYP) =  -840.001603338     A.U. after    8 cycles
 SCF Done:  E(RB3LYP) =  -840.001604017     A.U. after    7 cycles
 SCF Done:  E(RB3LYP) =  -840.001604494     A.U. after    7 cycles
 Optimization completed.
    -- Stationary point found.
 Normal termination of Gaussian 09 at Wed Jan 11 21:18:50 2017.

 --------------------------------------------------------------------
 #N Geom=AllCheck Guess=TCheck SCRF=Check GenChk RB3LYP/6-31G(d) Freq
 --------------------------------------------------------------------

 Structure from the checkpoint file:  "/scratch/10451472.yak.local/Gau-28387.chk"
 -------------------------
 boat5_Alpha_B3LYP_6-31G_d
 -------------------------
 Charge =  0 Multiplicity = 1

                         Standard orientation:
 ---------------------------------------------------------------------
 Center     Atomic      Atomic             Coordinates (Angstroms)
 Number     Number       Type             X           Y           Z
 ---------------------------------------------------------------------
      1          8           0        0.487346   -0.668359   -0.577922
      2          6           0       -1.338913    0.053977    0.983494
      3          6           0       -0.334379    1.624053   -0.827684
      4          6           0       -1.569227    1.260292    0.041070
      5          6           0        0.866321    0.707762   -0.559849
      6          6           0       -0.602235   -1.100003    0.283331
      7          1           0       -1.803100    2.126838    0.673439
      8          1           0       -0.163424   -1.722034    1.077717
      9          1           0       -2.315726   -0.344195    1.281249
     10          1           0       -0.640526    1.480433   -1.867745
     11          6           0       -1.513291   -1.966566   -0.600327
     12          1           0       -0.898422   -2.720702   -1.115492
     13          1           0       -1.987734   -1.338496   -1.355959
     14          8           0       -2.568533   -2.564369    0.141391
     15          1           0       -2.177654   -3.189052    0.772563
     16          8           0        0.067184    2.975389   -0.704440
     17          1           0        0.617030    3.013660    0.097710
     18          8           0       -2.629489    1.003783   -0.885283
     19          1           0       -3.435301    0.821888   -0.375353
     20          8           0       -0.708241    0.442462    2.191966
     21          1           0        0.195932    0.731731    1.953904
     22          1           0        1.594062    0.789047   -1.374235
     23          8           0        1.457628    1.102283    0.653218
     24          1           0        3.657076   -0.855123    0.072915
     25          8           0        2.847291   -2.135007   -0.776521
     26          1           0        2.784692   -2.925845   -0.220083
     27          1           0        1.939642   -1.751382   -0.783726
     28          8           0        3.883443   -0.005620    0.534641
     29          1           0        4.497246    0.451823   -0.059173
     30          1           0        2.393531    0.749814    0.685671
 ---------------------------------------------------------------------

 SCF Done:  E(RB3LYP) =  -840.001604494     A.U. after    1 cycles

 The electronic state is 1-A.
 Alpha  occ. eigenvalues --  -19.18260 -19.16905 -19.16444 -19.16209 -19.15840
 Alpha  occ. eigenvalues --  -19.15198 -19.14184 -19.12932 -10.29921 -10.24989
 Alpha  occ. eigenvalues --  -10.23795 -10.23693 -10.23640 -10.23547  -1.08371
 Alpha  occ. eigenvalues --   -1.03168  -1.03102  -1.02701  -1.02325  -1.01454
 Alpha  occ. eigenvalues --   -1.00636  -1.00262  -0.78036  -0.76503  -0.68732
 Alpha  occ. eigenvalues --   -0.65834  -0.63222  -0.58417  -0.55613  -0.54496
 Alpha  occ. eigenvalues --   -0.54242  -0.53470  -0.51963  -0.50771  -0.49291
 Alpha  occ. eigenvalues --   -0.48715  -0.46331  -0.44915  -0.43031  -0.42397
 Alpha  occ. eigenvalues --   -0.41872  -0.41292  -0.40550  -0.39075  -0.38347
 Alpha  occ. eigenvalues --   -0.36161  -0.36073  -0.34872  -0.33350  -0.33082
 Alpha  occ. eigenvalues --   -0.32504  -0.31604  -0.30622  -0.30322  -0.28821
 Alpha  occ. eigenvalues --   -0.26962  -0.26330  -0.24824
 Alpha virt. eigenvalues --    0.03538   0.05518   0.06262   0.07680   0.09518
 Alpha virt. eigenvalues --    0.10867   0.11159   0.12603   0.14221   0.14449
 Alpha virt. eigenvalues --    0.15476   0.16076   0.16821   0.18433   0.19952

 Mulliken charges:
               1
     1  O   -0.549622
     2  C    0.090741
     3  C    0.108444
     4  C    0.095940
     5  C    0.287745
     6  C    0.099816
     7  H    0.148839
     8  H    0.124367
     9  H    0.146193
    10  H    0.172990
    11  C   -0.059672
    12  H    0.124858
    13  H    0.184676
    14  O   -0.610171
    15  H    0.391649
    16  O   -0.632122
    17  H    0.402948
    18  O   -0.631847
    19  H    0.398523
    20  O   -0.666537
    21  H    0.421373
    22  H    0.143553
    23  O   -0.687558
    24  H    0.434190
    25  O   -0.815850
    26  H    0.401706
    27  H    0.440220
    28  O   -0.822928
    29  H    0.402516
    30  H    0.455020
 Sum of Mulliken charges =   0.00000

 Dipole moment (field-independent basis, Debye):
    X=              2.2234    Y=             -3.0869    Z=              0.1590  Tot=              3.8076
 Quadrupole moment (field-independent basis, Debye-Ang):
   XX=            -78.0215   YY=            -79.5689   ZZ=            -92.5874
   XY=              0.0870   XZ=             -4.3227   YZ=             -1.8609

  Exact polarizability: 102.764   4.322  97.855  -1.522  -0.935  81.043
 Approx polarizability: 132.639   5.957 127.476  -0.422  -0.512 122.984

                      1                      2                      3
                      A                      A                      A
 Frequencies --     17.4874                38.9457                45.3360
 Red. masses --      5.5383                 5.2292                 5.4991
 Frc consts  --      0.0010                 0.0047                 0.0067
 IR Inten    --      0.3899                 1.3392                 0.3374

                      4                      5                      6
                      A                      A                      A
 Frequencies --     76.5815                85.9175               144.6025
 Red. masses --      4.8133                 6.9303                 4.5654
 Frc consts  --      0.0166                 0.0301                 0.0562
 IR Inten    --      4.2827                 3.1601                 3.9778

                      7                      8                      9
                      A                      A                      A
 Frequencies --    161.8257               191.0507               205.9014
 Red. masses --      6.1071                 4.9492                 3.4524
 Frc consts  --      0.0942                 0.1064                 0.0862
 IR Inten    --      6.1752                 9.9157                12.4652

                     10                     11                     12
                      A                      A                      A
 Frequencies --    230.0652               242.9917               256.7992
 Red. masses --      6.2244                 1.0637                 5.5648
 Frc consts  --      0.1941                 0.0370                 0.2162
 IR Inten    --      1.3184               125.2982                 0.6910

                     13                     14                     15
                      A                      A                      A
 Frequencies --    259.6054               283.8083               307.2252
 Red. masses --      4.3174                 6.2606                 2.2910
 Frc consts  --      0.1714                 0.2971                 0.1274
 IR Inten    --      3.4958                 7.4844                16.6027

                     16                     17                     18
                      A                      A                      A
 Frequencies --    340.5971               360.3368               364.0762
 Red. masses --      1.6840                 1.1647                 1.3533
 Frc consts  --      0.1151                 0.0891                 0.1057
 IR Inten    --    139.6484               104.8263               151.0729

                     19                     20                     21
                      A                      A                      A
 Frequencies --    375.8928               385.7322               400.1908
 Red. masses --      3.7414                 4.2251                 1.8260
 Frc consts  --      0.3115                 0.3704                 0.1723
 IR Inten    --      8.8744                 5.3472                17.3953

                     22                     23                     24
                      A                      A                      A
 Frequencies --    428.6754               460.0844               463.7372
 Red. masses --      1.3703                 1.9813                 4.3433
 Frc consts  --      0.1484                 0.2471                 0.5503
 IR Inten    --     26.4878                93.1172                35.0498

                     25                     26                     27
                      A                      A                      A
 Frequencies --    476.2948               502.9825               514.0465
 Red. masses --      2.0939                 1.1294                 5.3187
 Frc consts  --      0.2799                 0.1684                 0.8281
 IR Inten    --     40.0688                22.1918                19.9646

                     28                     29                     30
                      A                      A                      A
 Frequencies --    570.9616               626.4059               659.8249
 Red. masses --      4.6714                 3.2212                 1.3504
 Frc consts  --      0.8972                 0.7447                 0.3464
 IR Inten    --     12.6838                27.3438                74.2031

                     31                     32                     33
                      A                      A                      A
 Frequencies --    688.1610               700.9500               802.1778
 Red. masses --      2.3937                 1.3614                 2.9020
 Frc consts  --      0.6679                 0.3941                 1.1002
 IR Inten    --     51.0137               127.6444                24.1474

                     34                     35                     36
                      A                      A                      A
 Frequencies --    841.9984               886.4745               921.2981
 Red. masses --      3.5602                 3.0746                 1.0863
 Frc consts  --      1.4871                 1.4236                 0.5433
 IR Inten    --     37.6109                23.8853               177.2207

                     37                     38                     39
                      A                      A                      A
 Frequencies --    954.8119               994.8973              1022.9588
 Red. masses --      3.2902                 2.2885                 3.1613
 Frc consts  --      1.7673                 1.3346                 1.9491
 IR Inten    --     14.2974                49.2965                14.1996

                     40                     41                     42
                      A                      A                      A
 Frequencies --   1044.0462              1052.8210              1079.8989
 Red. masses --      1.1516                 2.6131                 4.7785
 Frc consts  --      0.7396                 1.7065                 3.2833
 IR Inten    --    145.7766                19.8226               318.4858

                     43                     44                     45
                      A                      A                      A
 Frequencies --   1088.4654              1094.0988              1111.1660
 Red. masses --      3.8278                 3.6467                 2.7493
 Frc consts  --      2.6720                 2.5720                 2.0000
 IR Inten    --     49.6489                 5.8755                 3.7426

                     46                     47                     48
                      A                      A                      A
 Frequencies --   1121.4881              1126.2541              1163.4963
 Red. masses --      2.4107                 3.7266                 3.1474
 Frc consts  --      1.7864                 2.7850                 2.5104
 IR Inten    --      2.8043               170.1713               117.5080

                     49                     50                     51
                      A                      A                      A
 Frequencies --   1212.6360              1230.8109              1272.9754
 Red. masses --      1.3172                 1.1562                 1.4918
 Frc consts  --      1.1412                 1.0319                 1.4243
 IR Inten    --     14.6937                30.0781                13.2072

                     52                     53                     54
                      A                      A                      A
 Frequencies --   1305.2871              1326.2743              1333.2752
 Red. masses --      1.4124                 1.1850                 1.2223
 Frc consts  --      1.4178                 1.2281                 1.2802
 IR Inten    --     12.3239                19.7528                45.0507

                     55                     56                     57
                      A                      A                      A
 Frequencies --   1355.2048              1365.9087              1369.9330
 Red. masses --      1.2505                 1.2655                 1.3017
 Frc consts  --      1.3531                 1.3911                 1.4393
 IR Inten    --     29.1569                 0.0471                 1.0028

                     58                     59                     60
                      A                      A                      A
 Frequencies --   1400.7902              1409.3774              1417.7184
 Red. masses --      1.2327                 1.5144                 1.2322
 Frc consts  --      1.4251                 1.7723                 1.4592
 IR Inten    --     32.6207                10.3952                15.4645

                     61                     62                     63
                      A                      A                      A
 Frequencies --   1441.9635              1447.3266              1460.8011
 Red. masses --      1.2670                 1.4374                 1.2752
 Frc consts  --      1.5522                 1.7740                 1.6033
 IR Inten    --     21.7077                21.1392                46.9210

                     64                     65                     66
                      A                      A                      A
 Frequencies --   1499.8738              1524.4199              1533.0017
 Red. masses --      1.2255                 1.2519                 1.0827
 Frc consts  --      1.6243                 1.7140                 1.4991
 IR Inten    --     24.8664               109.2276                 7.9639

                     67                     68                     69
                      A                      A                      A
 Frequencies --   1728.2180              1746.2264              3010.4863
 Red. masses --      1.0783                 1.0685                 1.0769
 Frc consts  --      1.8975                 1.9196                 5.7507
 IR Inten    --     84.2048                19.7155                57.3734

                     70                     71                     72
                      A                      A                      A
 Frequencies --   3018.8631              3046.9606              3076.7139
 Red. masses --      1.0806                 1.0857                 1.0856
 Frc consts  --      5.8022                 5.9387                 6.0546
 IR Inten    --     52.4498                28.7905                32.4381

                     73                     74                     75
                      A                      A                      A
 Frequencies --   3082.2119              3107.7880              3156.0468
 Red. masses --      1.0872                 1.0870                 1.0937
 Frc consts  --      6.0854                 6.1856                 6.4185
 IR Inten    --     21.3476                17.6795                 5.7402

                     76                     77                     78
                      A                      A                      A
 Frequencies --   3189.6544              3369.8787              3501.6659
 Red. masses --      1.0698                 1.0621                 1.0587
 Frc consts  --      6.4125                 7.1062                 7.6488
 IR Inten    --   1004.2899               849.8501               717.6329

                     79                     80                     81
                      A                      A                      A
 Frequencies --   3593.5609              3700.3422              3734.3491
 Red. masses --      1.0654                 1.0650                 1.0662
 Frc consts  --      8.1058                 8.5919                 8.7600
 IR Inten    --    171.3029                37.0173                12.7364

                     82                     83                     84
                      A                      A                      A
 Frequencies --   3734.5935              3800.6703              3801.4655
 Red. masses --      1.0660                 1.0690                 1.0677
 Frc consts  --      8.7599                 9.0979                 9.0905
 IR Inten    --     14.3072                82.1518                43.8461

 - Thermochemistry -
 -------------------
 Temperature   298.150 Kelvin.  Pressure   1.00000 Atm.
 Atom     1 has atomic number  8 and mass  15.99491

 Molecular mass:   216.08452 amu.
 Principal axes and moments of inertia in atomic units:
                           1         2         3
     Eigenvalues --  2525.406903504.489364812.37925
           X            0.99996  -0.00778  -0.00327
           Y            0.00780   0.99996   0.00420
           Z            0.00324  -0.00422   0.99999
 This molecule is an asymmetric top.
 Rotational symmetry number  1.
 Warning -- assumption of classical behavior for rotation
           may cause significant error
 Rotational temperatures (Kelvin)      0.03430     0.02472     0.01800
 Rotational constants (GHZ):           0.71463     0.51498     0.37502
 Zero-point vibrational energy     654840.1 (Joules/Mol)
                                  156.51054 (Kcal/Mol)
 Warning -- explicit consideration of  28 degrees of freedom as
           vibrations may cause significant error
 Vibrational temperatures:     25.16    56.03    65.23   110.18   123.62
          (Kelvin)            208.05   232.83   274.88   296.25   331.01
                              349.61   369.48   373.51   408.34   442.03
                              490.04   518.44   523.82   540.83   554.98
                              575.78   616.77   661.96   667.21   685.28
                              723.68   739.60   821.49   901.26   949.34
                              990.11  1008.51  1154.15  1211.45  1275.44
                             1325.54  1373.76  1431.43  1471.81  1502.15
                             1514.77  1553.73  1566.06  1574.16  1598.72
                             1613.57  1620.43  1674.01  1744.71  1770.86
                             1831.53  1878.01  1908.21  1918.28  1949.83
                             1965.24  1971.03  2015.42  2027.78  2039.78
                             2074.66  2082.38  2101.76  2157.98  2193.30
                             2205.64  2486.52  2512.43  4331.41  4343.47
                             4383.89  4426.70  4434.61  4471.41  4540.84
                             4589.20  4848.50  5038.11  5170.33  5323.96
                             5372.89  5373.24  5468.31  5469.45

 Zero-point correction=                           0.249415 (Hartree/Particle)
 Thermal correction to Energy=                    0.266550
 Thermal correction to Enthalpy=                  0.267495
 Thermal correction to Gibbs Free Energy=         0.204211
 Sum of electronic and zero-point Energies=           -839.752189
 Sum of electronic and thermal Energies=              -839.735054
 Sum of electronic and thermal Enthalpies=            -839.734110
 Sum of electronic and thermal Free Energies=         -839.797394

                     E (Thermal)             CV                S
                      KCal/Mol        Cal/Mol-Kelvin    Cal/Mol-Kelvin
 Total                  167.263             63.533            133.192
 Electronic               0.000              0.000              0.000
 Translational            0.889              2.981             42.015
 Rotational               0.889              2.981             32.121
 Vibrational            165.485             57.571             59.056
 Vibration     1          0.593              1.986              6.901
 Vibration     2          0.594              1.981              5.312
 Vibration     3          0.595              1.979              5.011
 Vibration     4          0.599              1.965              3.977
 Vibration     5          0.601              1.959              3.751
 Vibration     6          0.616              1.908              2.742
 Vibration     7          0.622              1.889              2.528
 Vibration     8          0.634              1.852              2.218
 Vibration     9          0.640              1.831              2.080
 Vibration    10          0.652              1.795              1.878
 Vibration    11          0.659              1.774              1.781
 Vibration    12          0.666              1.751              1.683
 Vibration    13          0.668              1.746              1.664
 Vibration    14          0.682              1.704              1.511
 Vibration    15          0.697              1.660              1.377
 Vibration    16          0.720              1.594              1.209
 Vibration    17          0.735              1.554              1.121
 Vibration    18          0.738              1.546              1.105
 Vibration    19          0.747              1.521              1.056
 Vibration    20          0.754              1.501              1.017
 Vibration    21          0.766              1.470              0.962
 Vibration    22          0.790              1.408              0.863
 Vibration    23          0.818              1.339              0.766
 Vibration    24          0.821              1.330              0.755
 Vibration    25          0.833              1.303              0.720
 Vibration    26          0.858              1.243              0.651
 Vibration    27          0.869              1.219              0.624
 Vibration    28          0.927              1.094              0.502

 Normal termination of Gaussian 09 at Wed Jan 11 21:37:38 2017.
