 Gaussian 09, Revision E.01,
 Gaussian 09:  ES64L-G09RevE.01 30-Nov-2015

 ----------------------------------------------------------------------
 # opt=(calcfc,ts,noeigentest,maxcycle=1000,cartesian) b3lyp 6-31g(d) f
 req
 ----------------------------------------------------------------------

 -------------------------
 boat5_Alpha_B3LYP_6-31G_d
 -------------------------
 Symbolic Z-matrix:
 Charge =  0 Multiplicity = 1

 SCF Done:  E(RB3LYP) =  -839.940348669     A.U. after   14 cycles
 SCF Done:  E(RB3LYP) =  -839.940561658     A.U. after   11 cycles
 SCF Done:  E(RB3LYP) =  -839.940638275     A.U. after   11 cycles
 SCF Done:  E(RB3LYP) =  -839.940680427     A.U. after   11 cycles
 SCF Done:  E(RB3LYP) =  -839.940685963     A.U. after   11 cycles
 SCF Done:  E(RB3LYP) =  -839.940682194     A.U. after   11 cycles
 SCF Done:  E(RB3LYP) =  -839.940687815     A.U. after   10 cycles
 SCF Done:  E(RB3LYP) =  -839.940686513     A.U. after   10 cycles
 SCF Done:  E(RB3LYP) =  -839.940612503     A.U. after   11 cycles
 SCF Done:  E(RB3LYP) =  -839.940560888     A.U. after   11 cycles
 SCF Done:  E(RB3LYP) =  -839.940689286     A.U. after   11 cycles
 SCF Done:  E(RB3LYP) =  -839.940690947     A.U. after    8 cycles
 SCF Done:  E(RB3LYP) =  -839.940662450     A.U. after   11 cycles
 SCF Done:  E(RB3LYP) =  -839.940689766     A.U. after   11 cycles
 SCF Done:  E(RB3LYP) =  -839.940690498     A.U. after    8 cycles
 SCF Done:  E(RB3LYP) =  -839.940691174     A.U. after    7 cycles
 SCF Done:  E(RB3LYP) =  -839.940691089     A.U. after    7 cycles
 SCF Done:  E(RB3LYP) =  -839.940690696     A.U. after    7 cycles
 SCF Done:  E(RB3LYP) =  -839.940690893     A.U. after    7 cycles
 Optimization completed.
    -- Stationary point found.
 Normal termination of Gaussian 09 at Sat Jan 14 14:22:27 2017.

 --------------------------------------------------------------------
 #N Geom=AllCheck Guess=TCheck SCRF=Check GenChk RB3LYP/6-31G(d) Freq
 --------------------------------------------------------------------

 Structure from the checkpoint file:  "/scratch/10461813.yak.local/Gau-12301.chk"
 -------------------------
 boat5_Alpha_B3LYP_6-31G_d
 -------------------------
 Charge =  0 Multiplicity = 1

                         Standard orientation:
 ---------------------------------------------------------------------
 Center     Atomic      Atomic             Coordinates (Angstroms)
 Number     Number       Type             X           Y           Z
 ---------------------------------------------------------------------
      1          8           0       -1.395075   -0.252915   -1.124447
      2          6           0       -0.635865    0.727803    1.012119
      3          6           0        1.066798   -0.637357   -0.404303
      4          6           0        0.621013   -0.179893    0.994282
      5          6           0       -0.076438   -1.341991   -1.154644
      6          6           0       -1.288189    0.954880   -0.360728
      7          1           0        0.362220   -1.090035    1.548404
      8          1           0       -2.324770    1.283942   -0.179885
      9          1           0       -0.346163    1.705540    1.411808
     10          1           0        1.491492    0.198606   -0.962613
     11          6           0       -0.626749    2.083453   -1.173794
     12          1           0       -1.025221    2.047786   -2.196470
     13          1           0        0.457354    1.966358   -1.233433
     14          8           0       -0.846008    3.342868   -0.548425
     15          1           0       -1.747659    3.629984   -0.759800
     16          8           0        2.113477   -1.593684   -0.294783
     17          1           0        1.659502   -2.444430   -0.137689
     18          8           0        1.727413    0.481457    1.610767
     19          1           0        1.669929    0.352801    2.568970
     20          8           0       -1.577095    0.099343    1.925398
     21          1           0       -2.238378    0.764597    2.176048
     22          1           0        0.051229   -1.334970   -2.246955
     23          8           0       -0.429902   -2.467928   -0.609525
     24          1           0       -1.744545   -2.385398   -0.037266
     25          8           0       -2.639947   -1.837996    0.183211
     26          1           0       -2.457761   -1.416724    1.055850
     27          1           0       -2.244794   -1.003930   -0.526631
     28          8           0        3.907187    0.673004   -0.378719
     29          1           0        3.404796    0.814030    0.441782
     30          1           0        3.788959   -0.282723   -0.507529
 ---------------------------------------------------------------------

 SCF Done:  E(RB3LYP) =  -839.940690893     A.U. after    1 cycles

 The electronic state is 1-A.
 Alpha  occ. eigenvalues --  -19.19677 -19.19675 -19.18160 -19.16998 -19.16985
 Alpha  occ. eigenvalues --  -19.14975 -19.10656 -19.09354 -10.28745 -10.26659
 Alpha  occ. eigenvalues --  -10.26515 -10.25548 -10.25176 -10.23942  -1.08349
 Alpha  occ. eigenvalues --   -1.05985  -1.04569  -1.04242  -1.03019  -1.02018
 Alpha  occ. eigenvalues --   -0.98156  -0.95353  -0.79814  -0.75782  -0.70645
 Alpha  occ. eigenvalues --   -0.64926  -0.63569  -0.58963  -0.56750  -0.55224
 Alpha  occ. eigenvalues --   -0.54789  -0.53915  -0.51391  -0.50644  -0.49537
 Alpha  occ. eigenvalues --   -0.48086  -0.46614  -0.46413  -0.45432  -0.44366
 Alpha  occ. eigenvalues --   -0.43774  -0.41323  -0.41086  -0.39494  -0.38160
 Alpha  occ. eigenvalues --   -0.37763  -0.36992  -0.35642  -0.33991  -0.32809
 Alpha  occ. eigenvalues --   -0.32525  -0.31926  -0.29402  -0.28517  -0.27960
 Alpha  occ. eigenvalues --   -0.27138  -0.25188  -0.23669
 Alpha virt. eigenvalues --    0.02829   0.03396   0.04863   0.05436   0.08270
 Alpha virt. eigenvalues --    0.09710   0.10188   0.11586   0.12285   0.12644
 Alpha virt. eigenvalues --    0.14609   0.15442   0.16919   0.18089   0.18354

 Mulliken charges:
               1
     1  O   -0.636310
     2  C    0.075787
     3  C    0.073379
     4  C    0.113353
     5  C    0.326565
     6  C    0.107779
     7  H    0.149421
     8  H    0.113526
     9  H    0.175495
    10  H    0.162880
    11  C   -0.082117
    12  H    0.153282
    13  H    0.188372
    14  O   -0.608007
    15  H    0.394940
    16  O   -0.648752
    17  H    0.408134
    18  O   -0.634573
    19  H    0.406333
    20  O   -0.657918
    21  H    0.406472
    22  H    0.137792
    23  O   -0.664543
    24  H    0.465612
    25  O   -0.808693
    26  H    0.433677
    27  H    0.471830
    28  O   -0.834792
    29  H    0.404966
    30  H    0.406112
 Sum of Mulliken charges =   0.00000

 Dipole moment (field-independent basis, Debye):
    X=             -5.9678    Y=              1.8638    Z=              3.2728  Tot=              7.0569
 Quadrupole moment (field-independent basis, Debye-Ang):
   XX=            -96.2224   YY=            -89.5268   ZZ=            -74.6690
   XY=            -16.5168   XZ=              2.1458   YZ=             -1.8056

  Exact polarizability: 100.453  -3.133 101.347  -3.986   0.437  86.295
 Approx polarizability: 138.150  -2.347 145.155  -6.661  -1.360 122.805

 ******    1 imaginary frequencies (negative Signs) ******

                      1                      2                      3
                      A                      A                      A
 Frequencies --   -985.5151                30.2760                42.5638
 Red. masses --      1.3267                 6.3537                 7.7485
 Frc consts  --      0.7592                 0.0034                 0.0083
 IR Inten    --    236.6417                 1.7010                 7.3308

                      4                      5                      6
                      A                      A                      A
 Frequencies --     78.1813                87.7363               113.2663
 Red. masses --      6.6920                 4.3839                 4.0664
 Frc consts  --      0.0241                 0.0199                 0.0307
 IR Inten    --      4.1234                 6.7306                 6.7869

                      7                      8                      9
                      A                      A                      A
 Frequencies --    128.8852               136.6834               156.1120
 Red. masses --      6.4918                 1.1449                 3.9428
 Frc consts  --      0.0635                 0.0126                 0.0566
 IR Inten    --      2.5726                62.5141                 3.9886

                     10                     11                     12
                      A                      A                      A
 Frequencies --    162.5130               205.6193               230.0836
 Red. masses --      5.8333                 4.2320                 5.1578
 Frc consts  --      0.0908                 0.1054                 0.1609
 IR Inten    --      0.6491                13.3031                11.3928

                     13                     14                     15
                      A                      A                      A
 Frequencies --    262.7588               265.0153               272.8470
 Red. masses --      1.1101                 3.7101                 4.5493
 Frc consts  --      0.0452                 0.1535                 0.1995
 IR Inten    --     33.3984                23.5442                34.2142

                     16                     17                     18
                      A                      A                      A
 Frequencies --    304.5561               311.2759               320.5119
 Red. masses --      1.1142                 6.3162                 6.8122
 Frc consts  --      0.0609                 0.3606                 0.4123
 IR Inten    --    134.9795                 5.5401                26.4303

                     19                     20                     21
                      A                      A                      A
 Frequencies --    372.4972               384.1101               397.8102
 Red. masses --      2.3423                 4.5172                 1.6840
 Frc consts  --      0.1915                 0.3927                 0.1570
 IR Inten    --     57.1777                78.0799                86.1678

                     22                     23                     24
                      A                      A                      A
 Frequencies --    444.0241               450.4538               455.2257
 Red. masses --      4.0038                 1.3934                 2.5075
 Frc consts  --      0.4651                 0.1666                 0.3062
 IR Inten    --     44.3670                 8.8930                14.2070

                     25                     26                     27
                      A                      A                      A
 Frequencies --    506.7865               521.8936               547.9100
 Red. masses --      3.6865                 1.7740                 2.3938
 Frc consts  --      0.5579                 0.2847                 0.4234
 IR Inten    --      1.8317                66.7829                56.5563

                     28                     29                     30
                      A                      A                      A
 Frequencies --    564.6854               604.6683               633.0929
 Red. masses --      2.8174                 1.1516                 3.5982
 Frc consts  --      0.5293                 0.2481                 0.8497
 IR Inten    --     62.8622               396.1006                79.4312

                     31                     32                     33
                      A                      A                      A
 Frequencies --    660.8679               723.9489               739.1464
 Red. masses --      1.2161                 3.7012                 3.1290
 Frc consts  --      0.3129                 1.1429                 1.0072
 IR Inten    --     39.5449                 5.0778               111.2969

                     34                     35                     36
                      A                      A                      A
 Frequencies --    772.0762               777.9986               855.9813
 Red. masses --      1.2094                 4.1841                 3.1190
 Frc consts  --      0.4247                 1.4921                 1.3465
 IR Inten    --     67.9326               101.7855                57.1657

                     37                     38                     39
                      A                      A                      A
 Frequencies --    916.4933               964.8375              1018.6541
 Red. masses --      2.5646                 2.3335                 3.8378
 Frc consts  --      1.2692                 1.2799                 2.3463
 IR Inten    --      9.1922                 0.9757                26.9977

                     40                     41                     42
                      A                      A                      A
 Frequencies --   1026.0462              1064.6891              1086.4237
 Red. masses --      3.1265                 3.1876                 4.0931
 Frc consts  --      1.9393                 2.1289                 2.8464
 IR Inten    --    120.8376               174.4162               104.4019

                     43                     44                     45
                      A                      A                      A
 Frequencies --   1091.6885              1096.1692              1107.5031
 Red. masses --      2.7042                 4.5949                 2.5296
 Frc consts  --      1.8988                 3.2530                 1.8281
 IR Inten    --     16.2295                63.5356               160.0644

                     46                     47                     48
                      A                      A                      A
 Frequencies --   1111.3070              1194.0069              1214.5228
 Red. masses --      2.2691                 1.2309                 1.1820
 Frc consts  --      1.6511                 1.0339                 1.0273
 IR Inten    --     29.1241                13.7872               142.4616

                     49                     50                     51
                      A                      A                      A
 Frequencies --   1228.6017              1244.4623              1267.1266
 Red. masses --      1.1598                 1.1736                 1.4700
 Frc consts  --      1.0315                 1.0709                 1.3906
 IR Inten    --    247.8190                77.1512               210.1533

                     52                     53                     54
                      A                      A                      A
 Frequencies --   1275.5930              1322.4645              1333.8943
 Red. masses --      1.2025                 1.4791                 1.7744
 Frc consts  --      1.1528                 1.5241                 1.8601
 IR Inten    --    638.7981                68.0640               207.0829

                     55                     56                     57
                      A                      A                      A
 Frequencies --   1344.1578              1360.3879              1384.9194
 Red. masses --      1.2559                 1.4288                 1.3072
 Frc consts  --      1.3369                 1.5579                 1.4772
 IR Inten    --     23.0249                 4.5946                 9.3751

                     58                     59                     60
                      A                      A                      A
 Frequencies --   1392.8984              1414.3834              1422.0714
 Red. masses --      1.2959                 1.2904                 1.3232
 Frc consts  --      1.4813                 1.5210                 1.5765
 IR Inten    --    140.5068                40.6169                59.6844

                     61                     62                     63
                      A                      A                      A
 Frequencies --   1439.9357              1449.4788              1465.4936
 Red. masses --      1.3792                 1.5478                 1.2067
 Frc consts  --      1.6849                 1.9160                 1.5269
 IR Inten    --     35.4006               248.0633                58.6810

                     64                     65                     66
                      A                      A                      A
 Frequencies --   1468.6182              1533.7366              1645.1433
 Red. masses --      1.5760                 1.0880                 1.1794
 Frc consts  --      2.0027                 1.5080                 1.8807
 IR Inten    --    232.5118                 4.5844               236.2237

                     67                     68                     69
                      A                      A                      A
 Frequencies --   1653.1183              1752.2991              1839.9320
 Red. masses --      1.0429                 1.0811                 1.1028
 Frc consts  --      1.6793                 1.9558                 2.1997
 IR Inten    --     52.1303               177.7980               218.6284

                     70                     71                     72
                      A                      A                      A
 Frequencies --   2349.0105              2986.6803              3028.4663
 Red. masses --      1.0491                 1.0848                 1.0886
 Frc consts  --      3.4108                 5.7013                 5.8825
 IR Inten    --    994.2529                62.8487                71.1809

                     73                     74                     75
                      A                      A                      A
 Frequencies --   3050.1487              3062.0430              3086.0121
 Red. masses --      1.0685                 1.0850                 1.0862
 Frc consts  --      5.8570                 5.9938                 6.0946
 IR Inten    --     36.9031                11.6547                10.2957

                     76                     77                     78
                      A                      A                      A
 Frequencies --   3129.2871              3150.6620              3533.4514
 Red. masses --      1.0930                 1.0913                 1.0628
 Frc consts  --      6.3062                 6.3826                 7.8180
 IR Inten    --     24.8692                 7.4240               203.3188

                     79                     80                     81
                      A                      A                      A
 Frequencies --   3641.9749              3706.6800              3737.2981
 Red. masses --      1.0648                 1.0469                 1.0663
 Frc consts  --      8.3211                 8.4750                 8.7749
 IR Inten    --     53.8163                59.8183                23.8042

                     82                     83                     84
                      A                      A                      A
 Frequencies --   3746.1299              3765.5798              3788.1224
 Red. masses --      1.0666                 1.0669                 1.0785
 Frc consts  --      8.8190                 8.9134                 9.1188
 IR Inten    --     20.9682                31.7483                56.2581

 - Thermochemistry -
 -------------------
 Temperature   298.150 Kelvin.  Pressure   1.00000 Atm.
 Atom     1 has atomic number  8 and mass  15.99491

 Molecular mass:   216.08452 amu.
 Principal axes and moments of inertia in atomic units:
                           1         2         3
     Eigenvalues --  2682.829363208.099354270.27679
           X            0.99946  -0.03289  -0.00126
           Y            0.03288   0.99938  -0.01279
           Z            0.00168   0.01274   0.99992
 This molecule is an asymmetric top.
 Rotational symmetry number  1.
 Warning -- assumption of classical behavior for rotation
           may cause significant error
 Rotational temperatures (Kelvin)      0.03228     0.02700     0.02028
 Rotational constants (GHZ):           0.67270     0.56256     0.42263
    1 imaginary frequencies ignored.
 Zero-point vibrational energy     636501.1 (Joules/Mol)
                                  152.12740 (Kcal/Mol)
 Warning -- explicit consideration of  28 degrees of freedom as
           vibrations may cause significant error
 Vibrational temperatures:     43.56    61.24   112.49   126.23   162.96
          (Kelvin)            185.44   196.66   224.61   233.82   295.84
                              331.04   378.05   381.30   392.57   438.19
                              447.86   461.14   535.94   552.65   572.36
                              638.85   648.10   654.97   729.15   750.89
                              788.32   812.46   869.98   910.88   950.84
                             1041.60  1063.47  1110.84  1119.37  1231.56
                             1318.63  1388.18  1465.61  1476.25  1531.85
                             1563.12  1570.69  1577.14  1593.45  1598.92
                             1717.91  1747.43  1767.68  1790.50  1823.11
                             1835.29  1902.73  1919.17  1933.94  1957.29
                             1992.59  2004.07  2034.98  2046.04  2071.74
                             2085.47  2108.52  2113.01  2206.70  2366.99
                             2378.47  2521.16  2647.25  3379.70  4297.16
                             4357.28  4388.48  4405.59  4440.08  4502.34
                             4533.09  5083.84  5239.98  5333.08  5377.13
                             5389.84  5417.82  5450.26

 Zero-point correction=                           0.242430 (Hartree/Particle)
 Thermal correction to Energy=                    0.259447
 Thermal correction to Enthalpy=                  0.260391
 Thermal correction to Gibbs Free Energy=         0.198163
 Sum of electronic and zero-point Energies=           -839.698260
 Sum of electronic and thermal Energies=              -839.681244
 Sum of electronic and thermal Enthalpies=            -839.680300
 Sum of electronic and thermal Free Energies=         -839.742528

                     E (Thermal)             CV                S
                      KCal/Mol        Cal/Mol-Kelvin    Cal/Mol-Kelvin
 Total                  162.805             62.761            130.970
 Electronic               0.000              0.000              0.000
 Translational            0.889              2.981             42.015
 Rotational               0.889              2.981             31.975
 Vibrational            161.028             56.800             56.980
 Vibration     1          0.594              1.984              5.811
 Vibration     2          0.595              1.980              5.136
 Vibration     3          0.599              1.964              3.936
 Vibration     4          0.601              1.958              3.710
 Vibration     5          0.607              1.938              3.212
 Vibration     6          0.611              1.924              2.963
 Vibration     7          0.614              1.917              2.850
 Vibration     8          0.620              1.896              2.596
 Vibration     9          0.623              1.888              2.520
 Vibration    10          0.640              1.832              2.082
 Vibration    11          0.652              1.795              1.878
 Vibration    12          0.670              1.741              1.643
 Vibration    13          0.671              1.737              1.629
 Vibration    14          0.676              1.723              1.578
 Vibration    15          0.695              1.665              1.392
 Vibration    16          0.700              1.652              1.356
 Vibration    17          0.706              1.634              1.307
 Vibration    18          0.744              1.529              1.069
 Vibration    19          0.753              1.504              1.023
 Vibration    20          0.764              1.475              0.971
 Vibration    21          0.804              1.374              0.814
 Vibration    22          0.809              1.360              0.794
 Vibration    23          0.814              1.349              0.780
 Vibration    24          0.862              1.235              0.641
 Vibration    25          0.877              1.202              0.606
 Vibration    26          0.903              1.144              0.549
 Vibration    27          0.921              1.108              0.515
 Vibration    28          0.963              1.022              0.442

 Optimization completed.
    -- Stationary point found.
 Normal termination of Gaussian 09 at Sat Jan 14 14:43:16 2017.
