 Gaussian 09, Revision E.01,
 Gaussian 09:  ES64L-G09RevE.01 30-Nov-2015

 ---------------------------------------------------------
 # opt=maxcycle=1000 freq b3lyp/6-31g(d) geom=connectivity
 ---------------------------------------------------------

 -------------------------
 boat5_Alpha_B3LYP_6-31G_d
 -------------------------
 Symbolic Z-matrix:
 Charge =  0 Multiplicity = 1

 SCF Done:  E(RB3LYP) =  -839.736375428     A.U. after   15 cycles
 SCF Done:  E(RB3LYP) =  -839.801971520     A.U. after   13 cycles
 SCF Done:  E(RB3LYP) =  -839.876101271     A.U. after   13 cycles
 SCF Done:  E(RB3LYP) =  -839.884614507     A.U. after   13 cycles
 SCF Done:  E(RB3LYP) =  -839.913308901     A.U. after   13 cycles
 SCF Done:  E(RB3LYP) =  -839.925207262     A.U. after   13 cycles
 SCF Done:  E(RB3LYP) =  -839.943127912     A.U. after   12 cycles
 SCF Done:  E(RB3LYP) =  -839.954265991     A.U. after   12 cycles
 SCF Done:  E(RB3LYP) =  -839.963165431     A.U. after   12 cycles
 SCF Done:  E(RB3LYP) =  -839.968029012     A.U. after   12 cycles
 SCF Done:  E(RB3LYP) =  -839.978203237     A.U. after    8 cycles
 SCF Done:  E(RB3LYP) =  -839.978204445     A.U. after    7 cycles
 SCF Done:  E(RB3LYP) =  -839.978205075     A.U. after    7 cycles
 SCF Done:  E(RB3LYP) =  -839.978205385     A.U. after    7 cycles
 SCF Done:  E(RB3LYP) =  -839.978205569     A.U. after    7 cycles
 SCF Done:  E(RB3LYP) =  -839.978205734     A.U. after    7 cycles
 SCF Done:  E(RB3LYP) =  -839.978205905     A.U. after    7 cycles
 SCF Done:  E(RB3LYP) =  -839.978206091     A.U. after    7 cycles
 SCF Done:  E(RB3LYP) =  -839.978206197     A.U. after    6 cycles
 Optimization completed.
    -- Stationary point found.
 Normal termination of Gaussian 09 at Wed Jan 11 20:55:00 2017.

 --------------------------------------------------------------------
 #N Geom=AllCheck Guess=TCheck SCRF=Check GenChk RB3LYP/6-31G(d) Freq
 --------------------------------------------------------------------

 Structure from the checkpoint file:  "/scratch/10451467.yak.local/Gau-27204.chk"
 -------------------------
 boat5_Alpha_B3LYP_6-31G_d
 -------------------------
 Charge =  0 Multiplicity = 1

                         Standard orientation:
 ---------------------------------------------------------------------
 Center     Atomic      Atomic             Coordinates (Angstroms)
 Number     Number       Type             X           Y           Z
 ---------------------------------------------------------------------
      1          8           0       -1.311483   -0.007408   -0.930092
      2          6           0       -0.239448    0.981736    1.103371
      3          6           0        0.874125   -0.927888   -0.254903
      4          6           0        0.919610   -0.046126    1.006011
      5          6           0       -0.563601   -1.205742   -0.678920
      6          6           0       -0.967327    1.201905   -0.229384
      7          1           0        0.830561   -0.697117    1.883277
      8          1           0       -1.928153    1.692606   -0.011284
      9          1           0        0.197099    1.952448    1.378141
     10          1           0        1.413593   -0.422806   -1.060030
     11          6           0       -0.181465    2.136709   -1.170259
     12          1           0       -0.637385    2.093549   -2.168572
     13          1           0        0.859739    1.816172   -1.260631
     14          8           0       -0.136231    3.462942   -0.655355
     15          1           0       -0.999195    3.875002   -0.815883
     16          8           0        1.554495   -2.159359   -0.059036
     17          1           0        0.945144   -2.724160    0.449061
     18          8           0        2.193059    0.608594    0.984643
     19          1           0        2.365000    0.976794    1.865166
     20          8           0       -1.123583    0.524878    2.127814
     21          1           0       -1.726310    1.254507    2.340217
     22          1           0       -0.584106   -1.732403   -1.641345
     23          8           0       -1.123109   -1.988573    0.337017
     24          1           0       -2.058047   -2.169307    0.086371
     25          8           0       -3.681402   -1.550190   -0.582278
     26          1           0       -4.105893   -1.247100    0.235552
     27          1           0       -3.144237   -0.783696   -0.868901
     28          8           0        3.927974   -0.758846   -0.979898
     29          1           0        3.629022   -0.185780   -0.253171
     30          1           0        3.494029   -1.598585   -0.755984
 ---------------------------------------------------------------------

 SCF Done:  E(RB3LYP) =  -839.978206197     A.U. after    1 cycles

 The electronic state is 1-A.
 Alpha  occ. eigenvalues --  -19.17909 -19.17001 -19.16480 -19.16443 -19.16251
 Alpha  occ. eigenvalues --  -19.15532 -19.15099 -19.09236 -10.29408 -10.25884
 Alpha  occ. eigenvalues --  -10.25351 -10.25085 -10.24459 -10.24382  -1.08052
 Alpha  occ. eigenvalues --   -1.04510  -1.03865  -1.03360  -1.02527  -1.02180
 Alpha  occ. eigenvalues --   -1.00538  -0.95255  -0.79367  -0.77325  -0.69998
 Alpha  occ. eigenvalues --   -0.65997  -0.64338  -0.58653  -0.56418  -0.54589
 Alpha  occ. eigenvalues --   -0.53689  -0.52371  -0.51150  -0.50844  -0.49736
 Alpha  occ. eigenvalues --   -0.47625  -0.46486  -0.45171  -0.44404  -0.43012
 Alpha  occ. eigenvalues --   -0.42101  -0.41001  -0.40367  -0.39237  -0.38085
 Alpha  occ. eigenvalues --   -0.36606  -0.35814  -0.34664  -0.33723  -0.32617
 Alpha  occ. eigenvalues --   -0.31471  -0.31031  -0.30579  -0.29363  -0.28235
 Alpha  occ. eigenvalues --   -0.27194  -0.26511  -0.25069
 Alpha virt. eigenvalues --    0.04015   0.04902   0.05595   0.06716   0.08316
 Alpha virt. eigenvalues --    0.09899   0.10328   0.11761   0.13096   0.13940
 Alpha virt. eigenvalues --    0.15110   0.15553   0.16641   0.17532   0.18146

 Mulliken charges:
               1
     1  O   -0.540520
     2  C    0.093080
     3  C    0.073354
     4  C    0.116042
     5  C    0.314250
     6  C    0.114916
     7  H    0.162790
     8  H    0.103771
     9  H    0.148812
    10  H    0.177444
    11  C   -0.078721
    12  H    0.145937
    13  H    0.183481
    14  O   -0.609342
    15  H    0.392685
    16  O   -0.649475
    17  H    0.412645
    18  O   -0.637114
    19  H    0.404270
    20  O   -0.632444
    21  H    0.389614
    22  H    0.148086
    23  O   -0.657728
    24  H    0.423424
    25  O   -0.791332
    26  H    0.398540
    27  H    0.421207
    28  O   -0.836504
    29  H    0.404222
    30  H    0.404612
 Sum of Mulliken charges =  -0.00000

 Dipole moment (field-independent basis, Debye):
    X=             -5.5522    Y=              3.1990    Z=              3.1860  Tot=              7.1562
 Quadrupole moment (field-independent basis, Debye-Ang):
   XX=            -94.9904   YY=            -80.6548   ZZ=            -81.2889
   XY=             -7.9652   XZ=              6.4336   YZ=              0.2638

  Exact polarizability:  99.371  -1.888  98.355  -2.919   1.160  82.840
 Approx polarizability: 130.748  -0.703 132.241  -5.638   0.392 118.447

                      1                      2                      3
                      A                      A                      A
 Frequencies --     21.9450                38.8219                56.6022
 Red. masses --      5.4837                 6.7724                 5.7805
 Frc consts  --      0.0016                 0.0060                 0.0109
 IR Inten    --      6.7065                 4.0413                 6.1606

                      4                      5                      6
                      A                      A                      A
 Frequencies --     70.0750                97.6056               112.4857
 Red. masses --      5.6604                 5.1221                 3.8758
 Frc consts  --      0.0164                 0.0288                 0.0289
 IR Inten    --      6.4506                 1.7511                 3.4035

                      7                      8                      9
                      A                      A                      A
 Frequencies --    131.3075               140.4063               155.2024
 Red. masses --      4.9433                 5.6210                 6.4132
 Frc consts  --      0.0502                 0.0653                 0.0910
 IR Inten    --      5.6747                 1.4996                 1.5256

                     10                     11                     12
                      A                      A                      A
 Frequencies --    188.7558               189.6125               231.9396
 Red. masses --      3.6108                 5.9566                 3.4657
 Frc consts  --      0.0758                 0.1262                 0.1098
 IR Inten    --      5.9932                 0.7641                 3.2100

                     13                     14                     15
                      A                      A                      A
 Frequencies --    254.9133               271.2792               282.2392
 Red. masses --      1.5763                 1.4921                 1.4981
 Frc consts  --      0.0604                 0.0647                 0.0703
 IR Inten    --    122.1230                30.3105                66.8615

                     16                     17                     18
                      A                      A                      A
 Frequencies --    290.3278               302.9806               303.2512
 Red. masses --      3.0235                 1.0668                 1.2425
 Frc consts  --      0.1502                 0.0577                 0.0673
 IR Inten    --     34.8740                89.4143               150.8644

                     19                     20                     21
                      A                      A                      A
 Frequencies --    321.0792               323.7113               351.4621
 Red. masses --      1.5536                 1.9647                 1.8753
 Frc consts  --      0.0944                 0.1213                 0.1365
 IR Inten    --     15.1141                32.2741                88.6885

                     22                     23                     24
                      A                      A                      A
 Frequencies --    357.7419               414.5810               450.9719
 Red. masses --      3.2934                 3.5579                 3.2076
 Frc consts  --      0.2483                 0.3603                 0.3844
 IR Inten    --     61.0869                20.2221                40.1897

                     25                     26                     27
                      A                      A                      A
 Frequencies --    460.7346               474.6156               491.3502
 Red. masses --      1.0974                 1.2948                 4.0067
 Frc consts  --      0.1373                 0.1718                 0.5699
 IR Inten    --      5.8930                82.1005                 9.4279

                     28                     29                     30
                      A                      A                      A
 Frequencies --    514.5504               552.4153               589.5618
 Red. masses --      4.9101                 3.5958                 2.9823
 Frc consts  --      0.7659                 0.6465                 0.6107
 IR Inten    --     22.1369                20.3986               129.7701

                     31                     32                     33
                      A                      A                      A
 Frequencies --    595.6532               643.3712               695.6656
 Red. masses --      1.3475                 1.1492                 4.3286
 Frc consts  --      0.2817                 0.2803                 1.2342
 IR Inten    --    319.9010               149.7829                22.6153

                     34                     35                     36
                      A                      A                      A
 Frequencies --    813.5891               820.9871               838.9295
 Red. masses --      1.4893                 3.6397                 1.7910
 Frc consts  --      0.5808                 1.4454                 0.7427
 IR Inten    --     46.8770               118.7949                31.5061

                     37                     38                     39
                      A                      A                      A
 Frequencies --    917.0176               959.5797               986.2382
 Red. masses --      2.8517                 3.4112                 2.3559
 Frc consts  --      1.4129                 1.8506                 1.3501
 IR Inten    --     11.4195                39.9188                39.0174

                     40                     41                     42
                      A                      A                      A
 Frequencies --   1035.8086              1053.2708              1070.5803
 Red. masses --      3.4444                 3.0191                 5.3141
 Frc consts  --      2.1773                 1.9734                 3.5885
 IR Inten    --    100.0979                50.2375               152.7082

                     43                     44                     45
                      A                      A                      A
 Frequencies --   1085.0417              1091.7529              1100.9266
 Red. masses --      4.7772                 2.7886                 2.7871
 Frc consts  --      3.3138                 1.9583                 1.9903
 IR Inten    --    138.3854                 6.7640                25.6807

                     46                     47                     48
                      A                      A                      A
 Frequencies --   1120.9126              1126.2158              1164.6510
 Red. masses --      3.2597                 3.2560                 2.5911
 Frc consts  --      2.4130                 2.4332                 2.0708
 IR Inten    --     75.1764                85.1747                91.3647

                     49                     50                     51
                      A                      A                      A
 Frequencies --   1199.2516              1227.8645              1249.4017
 Red. masses --      1.4196                 1.1761                 1.1478
 Frc consts  --      1.2029                 1.0447                 1.0556
 IR Inten    --     29.9360                60.4870                35.8801

                     52                     53                     54
                      A                      A                      A
 Frequencies --   1273.3477              1319.8388              1338.5937
 Red. masses --      1.2698                 1.4201                 1.2281
 Frc consts  --      1.2130                 1.4575                 1.2966
 IR Inten    --      0.7240                32.4036                70.3843

                     55                     56                     57
                      A                      A                      A
 Frequencies --   1342.6124              1368.7322              1379.3164
 Red. masses --      1.1989                 1.3010                 1.2668
 Frc consts  --      1.2734                 1.4360                 1.4200
 IR Inten    --      7.2910                13.5076                 6.6348

                     58                     59                     60
                      A                      A                      A
 Frequencies --   1386.3805              1401.3812              1425.7818
 Red. masses --      1.4184                 1.2477                 1.1890
 Frc consts  --      1.6062                 1.4437                 1.4241
 IR Inten    --      9.4115                35.3197                 9.5917

                     61                     62                     63
                      A                      A                      A
 Frequencies --   1432.1972              1444.6308              1460.5446
 Red. masses --      1.2626                 1.5219                 1.3387
 Frc consts  --      1.5259                 1.8714                 1.6825
 IR Inten    --     28.3581                 5.4699                15.8183

                     64                     65                     66
                      A                      A                      A
 Frequencies --   1464.1942              1525.6239              1531.3044
 Red. masses --      1.3121                 1.4519                 1.0893
 Frc consts  --      1.6573                 1.9911                 1.5049
 IR Inten    --     20.2908                38.0675                 5.8444

                     67                     68                     69
                      A                      A                      A
 Frequencies --   1731.5444              1755.9572              3005.5128
 Red. masses --      1.0763                 1.0803                 1.0853
 Frc consts  --      1.9014                 1.9626                 5.7762
 IR Inten    --     56.5517               191.9709                59.0505

                     70                     71                     72
                      A                      A                      A
 Frequencies --   3031.1328              3045.4024              3059.7320
 Red. masses --      1.0849                 1.0679                 1.0867
 Frc consts  --      5.8727                 5.8351                 5.9939
 IR Inten    --     28.1937                36.6861                49.5137

                     73                     74                     75
                      A                      A                      A
 Frequencies --   3070.1738              3122.6436              3136.3993
 Red. masses --      1.0856                 1.0887                 1.0964
 Frc consts  --      6.0292                 6.2548                 6.3542
 IR Inten    --     13.4137                18.3229                 9.4523

                     76                     77                     78
                      A                      A                      A
 Frequencies --   3486.1161              3616.4729              3696.2258
 Red. masses --      1.0661                 1.0542                 1.0642
 Frc consts  --      7.6334                 8.1235                 8.5663
 IR Inten    --    369.2973               289.2688                61.0021

                     79                     80                     81
                      A                      A                      A
 Frequencies --   3702.8206              3740.6714              3742.6646
 Red. masses --      1.0481                 1.0664                 1.0665
 Frc consts  --      8.4670                 8.7913                 8.8017
 IR Inten    --     63.6798                10.7754                17.7602

                     82                     83                     84
                      A                      A                      A
 Frequencies --   3749.0966              3789.1710              3795.8799
 Red. masses --      1.0665                 1.0785                 1.0732
 Frc consts  --      8.8318                 9.1232                 9.1111
 IR Inten    --     26.2959                59.2557                70.5290

 - Thermochemistry -
 -------------------
 Temperature   298.150 Kelvin.  Pressure   1.00000 Atm.
 Atom     1 has atomic number  8 and mass  15.99491

 Molecular mass:   216.08452 amu.
 Principal axes and moments of inertia in atomic units:
                           1         2         3
     Eigenvalues --  2715.287143451.772474678.25797
           X            0.99987  -0.01603   0.00227
           Y            0.01604   0.99987  -0.00104
           Z           -0.00225   0.00108   1.00000
 This molecule is an asymmetric top.
 Rotational symmetry number  1.
 Warning -- assumption of classical behavior for rotation
           may cause significant error
 Rotational temperatures (Kelvin)      0.03190     0.02509     0.01851
 Rotational constants (GHZ):           0.66466     0.52284     0.38577
 Zero-point vibrational energy     649640.0 (Joules/Mol)
                                  155.26769 (Kcal/Mol)
 Warning -- explicit consideration of  31 degrees of freedom as
           vibrations may cause significant error
 Vibrational temperatures:     31.57    55.86    81.44   100.82   140.43
          (Kelvin)            161.84   188.92   202.01   223.30   271.58
                              272.81   333.71   366.76   390.31   406.08
                              417.72   435.92   436.31   461.96   465.75
                              505.67   514.71   596.49   648.85   662.89
                              682.87   706.94   740.32   794.80   848.25
                              857.01   925.67  1000.91  1170.57  1181.22
                             1207.03  1319.38  1380.62  1418.97  1490.30
                             1515.42  1540.32  1561.13  1570.79  1583.99
                             1612.74  1620.37  1675.67  1725.45  1766.62
                             1797.61  1832.06  1898.95  1925.94  1931.72
                             1969.30  1984.53  1994.69  2016.27  2051.38
                             2060.61  2078.50  2101.40  2106.65  2195.03
                             2203.20  2491.30  2526.43  4324.26  4361.12
                             4381.65  4402.27  4417.29  4492.78  4512.57
                             5015.74  5203.29  5318.04  5327.53  5381.99
                             5384.85  5394.11  5451.77  5461.42

 Zero-point correction=                           0.247435 (Hartree/Particle)
 Thermal correction to Energy=                    0.265879
 Thermal correction to Enthalpy=                  0.266823
 Thermal correction to Gibbs Free Energy=         0.200995
 Sum of electronic and zero-point Energies=           -839.730771
 Sum of electronic and thermal Energies=              -839.712328
 Sum of electronic and thermal Enthalpies=            -839.711383
 Sum of electronic and thermal Free Energies=         -839.777211

                     E (Thermal)             CV                S
                      KCal/Mol        Cal/Mol-Kelvin    Cal/Mol-Kelvin
 Total                  166.841             66.470            138.546
 Electronic               0.000              0.000              0.000
 Translational            0.889              2.981             42.015
 Rotational               0.889              2.981             32.150
 Vibrational            165.064             60.508             64.381
 Vibration     1          0.593              1.985              6.450
 Vibration     2          0.594              1.981              5.318
 Vibration     3          0.596              1.975              4.572
 Vibration     4          0.598              1.968              4.151
 Vibration     5          0.603              1.951              3.502
 Vibration     6          0.607              1.939              3.226
 Vibration     7          0.612              1.922              2.927
 Vibration     8          0.615              1.913              2.798
 Vibration     9          0.620              1.897              2.607
 Vibration    10          0.633              1.855              2.240
 Vibration    11          0.633              1.854              2.232
 Vibration    12          0.653              1.792              1.864
 Vibration    13          0.665              1.754              1.696
 Vibration    14          0.675              1.726              1.588
 Vibration    15          0.681              1.707              1.520
 Vibration    16          0.686              1.692              1.472
 Vibration    17          0.694              1.668              1.400
 Vibration    18          0.695              1.668              1.399
 Vibration    19          0.707              1.633              1.305
 Vibration    20          0.708              1.628              1.291
 Vibration    21          0.728              1.572              1.160
 Vibration    22          0.733              1.559              1.132
 Vibration    23          0.778              1.439              0.911
 Vibration    24          0.810              1.359              0.793
 Vibration    25          0.819              1.337              0.764
 Vibration    26          0.831              1.306              0.725
 Vibration    27          0.847              1.269              0.680
 Vibration    28          0.870              1.218              0.623
 Vibration    29          0.908              1.134              0.539
 Vibration    30          0.947              1.054              0.468
 Vibration    31          0.953              1.041              0.457

 Normal termination of Gaussian 09 at Wed Jan 11 21:12:51 2017.
