 Gaussian 09, Revision D.01,
 Gaussian 09:  ES64L-G09RevD.01 24-Apr-2013

 ------------------------------------------------------
 # opt=(modredundant,MaxCycle=1000) freq B3LYP/6-31G(d)
 ------------------------------------------------------

 ------------------------
 boat5_Beta_B3LYP_6-31G_d
 ------------------------
 Symbolic Z-matrix:
 Charge =  0 Multiplicity = 1

 SCF Done:  E(RB3LYP) =  -839.899989343     A.U. after   14 cycles
 SCF Done:  E(RB3LYP) =  -839.924044055     A.U. after   12 cycles
 SCF Done:  E(RB3LYP) =  -839.947472291     A.U. after   12 cycles
 SCF Done:  E(RB3LYP) =  -839.955559283     A.U. after   12 cycles
 SCF Done:  E(RB3LYP) =  -839.962998533     A.U. after   12 cycles
 SCF Done:  E(RB3LYP) =  -839.968905618     A.U. after   12 cycles
 SCF Done:  E(RB3LYP) =  -839.971773083     A.U. after   12 cycles
 SCF Done:  E(RB3LYP) =  -839.973504507     A.U. after   11 cycles
 SCF Done:  E(RB3LYP) =  -839.975057410     A.U. after   12 cycles
 SCF Done:  E(RB3LYP) =  -839.975663455     A.U. after   11 cycles
 SCF Done:  E(RB3LYP) =  -839.990355263     A.U. after    9 cycles
 SCF Done:  E(RB3LYP) =  -839.990356686     A.U. after    7 cycles
 SCF Done:  E(RB3LYP) =  -839.990357789     A.U. after    7 cycles
 SCF Done:  E(RB3LYP) =  -839.990358786     A.U. after    7 cycles
 SCF Done:  E(RB3LYP) =  -839.990359777     A.U. after    7 cycles
 SCF Done:  E(RB3LYP) =  -839.990360451     A.U. after    7 cycles
 SCF Done:  E(RB3LYP) =  -839.990360786     A.U. after    7 cycles
 SCF Done:  E(RB3LYP) =  -839.990360911     A.U. after    7 cycles
 SCF Done:  E(RB3LYP) =  -839.990361028     A.U. after    7 cycles
 Optimization completed.
    -- Stationary point found.
 Normal termination of Gaussian 09 at Mon Jan 23 23:13:20 2017.

 --------------------------------------------------------------------
 #N Geom=AllCheck Guess=TCheck SCRF=Check GenChk RB3LYP/6-31G(d) Freq
 --------------------------------------------------------------------

 Structure from the checkpoint file:  "/home/iawad/Gau-13825.chk"
 ------------------------
 boat5_Beta_B3LYP_6-31G_d
 ------------------------
 Charge =  0 Multiplicity = 1

                         Standard orientation:
 ---------------------------------------------------------------------
 Center     Atomic      Atomic             Coordinates (Angstroms)
 Number     Number       Type             X           Y           Z
 ---------------------------------------------------------------------
      1          8           0        0.436889    0.755742    0.571107
      2          6           0       -1.318964    0.143045   -1.061687
      3          6           0       -0.161841   -1.665682    0.290292
      4          6           0       -1.474150   -1.229331   -0.390169
      5          6           0        0.935300   -0.592412    0.298523
      6          6           0       -0.781553    1.178897   -0.071632
      7          1           0       -1.695809   -1.978461   -1.169878
      8          1           0       -0.537753    2.077119   -0.659144
      9          1           0       -2.303102    0.486568   -1.412701
     10          1           0       -0.403407   -1.898818    1.336120
     11          6           0       -1.765002    1.547924    1.059484
     12          1           0       -1.434172    2.480493    1.535181
     13          1           0       -1.744546    0.758000    1.808736
     14          1           0        1.399186   -0.566975   -0.694410
     15          8           0        1.849482   -0.925410    1.273542
     16          1           0        2.728592   -0.539453    1.020195
     17          8           0       -3.125354    1.641810    0.627958
     18          1           0       -3.225414    2.437653    0.082739
     19          8           0        0.341486   -2.810625   -0.387567
     20          1           0        1.161112   -3.053614    0.075375
     21          8           0       -2.512042   -1.223594    0.580056
     22          1           0       -3.156095   -0.529374    0.355440
     23          8           0       -0.400081    0.107950   -2.153945
     24          1           0       -0.548521   -0.714628   -2.647987
     25          8           0        4.117368    0.283760    0.351898
     26          1           0        3.668163    1.005878   -0.156148
     27          1           0        4.580602    0.742068    1.069308
     28          8           0        2.424290    2.099440   -0.791746
     29          1           0        2.138036    1.798396   -1.668816
     30          1           0        1.714071    1.767911   -0.193306
 ---------------------------------------------------------------------

 SCF Done:  E(RB3LYP) =  -839.990361028     A.U. after    1 cycles

 The electronic state is 1-A.
 Alpha  occ. eigenvalues --  -19.17376 -19.17021 -19.16710 -19.15448 -19.14897
 Alpha  occ. eigenvalues --  -19.14656 -19.14609 -19.13732 -10.27949 -10.25515
 Alpha  occ. eigenvalues --  -10.25463 -10.24572 -10.24309 -10.23289  -1.06814
 Alpha  occ. eigenvalues --   -1.04335  -1.03990  -1.02642  -1.01713  -1.01351
 Alpha  occ. eigenvalues --   -1.00450  -0.99126  -0.78553  -0.76422  -0.69545
 Alpha  occ. eigenvalues --   -0.66037  -0.63097  -0.56281  -0.55234  -0.54474
 Alpha  occ. eigenvalues --   -0.53654  -0.52831  -0.52185  -0.51781  -0.50821
 Alpha  occ. eigenvalues --   -0.48246  -0.46928  -0.43970  -0.43360  -0.42267
 Alpha  occ. eigenvalues --   -0.41449  -0.40898  -0.40027  -0.39245  -0.38618
 Alpha  occ. eigenvalues --   -0.36871  -0.35595  -0.34950  -0.33585  -0.32373
 Alpha  occ. eigenvalues --   -0.31405  -0.31045  -0.29875  -0.29298  -0.28702
 Alpha  occ. eigenvalues --   -0.27758  -0.26872  -0.25238
 Alpha virt. eigenvalues --    0.03855   0.04704   0.06375   0.07930   0.09633
 Alpha virt. eigenvalues --    0.10254   0.11824   0.12133   0.13197   0.13903
 Alpha virt. eigenvalues --    0.15046   0.16217   0.17782   0.18800   0.19478

 Mulliken charges:
               1
     1  O   -0.552147
     2  C    0.063544
     3  C    0.107103
     4  C    0.112858
     5  C    0.314249
     6  C    0.114871
     7  H    0.136697
     8  H    0.128818
     9  H    0.127089
    10  H    0.163302
    11  C   -0.071370
    12  H    0.146528
    13  H    0.193431
    14  H    0.122945
    15  O   -0.656592
    16  H    0.438173
    17  O   -0.623556
    18  H    0.399534
    19  O   -0.644788
    20  H    0.403593
    21  O   -0.648055
    22  H    0.419363
    23  O   -0.640828
    24  H    0.407083
    25  O   -0.819030
    26  H    0.431169
    27  H    0.397630
    28  O   -0.825278
    29  H    0.406056
    30  H    0.447608
 Sum of Mulliken charges =   0.00000

 Dipole moment (field-independent basis, Debye):
    X=             -1.0958    Y=              2.7625    Z=             -2.0884  Tot=              3.6323
 Quadrupole moment (field-independent basis, Debye-Ang):
   XX=            -82.3703   YY=            -83.5422   ZZ=            -81.1767
   XY=             -6.0277   XZ=              8.3775   YZ=              2.5200

  Exact polarizability: 104.812  -4.964  94.234   3.228   0.331  83.602
 Approx polarizability: 134.694  -4.996 127.649   3.198  -1.614 124.648

 ******    1 imaginary frequencies (negative Signs) ******

                      1                      2                      3
                      A                      A                      A
 Frequencies --    -21.7197                36.5479                46.7202
 Red. masses --      5.3656                 5.4233                 5.2069
 Frc consts  --      0.0015                 0.0043                 0.0067
 IR Inten    --      3.1922                 1.4148                 2.4146

                      4                      5                      6
                      A                      A                      A
 Frequencies --     62.7783                90.6152               117.9245
 Red. masses --      5.7654                 4.4134                 5.3741
 Frc consts  --      0.0134                 0.0214                 0.0440
 IR Inten    --      1.0253                 2.2792                10.2041

                      7                      8                      9
                      A                      A                      A
 Frequencies --    173.2131               187.3601               216.8576
 Red. masses --      3.4703                 5.2563                 4.2914
 Frc consts  --      0.0613                 0.1087                 0.1189
 IR Inten    --      6.4016                 2.9382                 0.5023

                     10                     11                     12
                      A                      A                      A
 Frequencies --    222.8779               243.5397               256.9971
 Red. masses --      3.4667                 4.7739                 4.2148
 Frc consts  --      0.1015                 0.1668                 0.1640
 IR Inten    --     35.4664                13.3786                24.7874

                     13                     14                     15
                      A                      A                      A
 Frequencies --    266.4701               270.4849               297.0323
 Red. masses --      1.7240                 5.5220                 1.6107
 Frc consts  --      0.0721                 0.2380                 0.0837
 IR Inten    --     56.4934                22.7932                55.9634

                     16                     17                     18
                      A                      A                      A
 Frequencies --    311.1442               319.5625               348.5138
 Red. masses --      1.0992                 4.5701                 1.7531
 Frc consts  --      0.0627                 0.2750                 0.1255
 IR Inten    --    133.7596                55.5069                33.3631

                     19                     20                     21
                      A                      A                      A
 Frequencies --    373.8427               380.4326               402.3012
 Red. masses --      1.4770                 2.4397                 3.4117
 Frc consts  --      0.1216                 0.2080                 0.3253
 IR Inten    --    101.9878                33.3100                48.9074

                     22                     23                     24
                      A                      A                      A
 Frequencies --    411.1993               450.8621               463.2814
 Red. masses --      1.2958                 1.4909                 2.8273
 Frc consts  --      0.1291                 0.1786                 0.3575
 IR Inten    --     76.7214                22.2577                15.0853

                     25                     26                     27
                      A                      A                      A
 Frequencies --    470.1447               495.3788               537.8036
 Red. masses --      1.4242                 4.0396                 2.6296
 Frc consts  --      0.1855                 0.5841                 0.4481
 IR Inten    --    184.8508                20.0214                53.3606

                     28                     29                     30
                      A                      A                      A
 Frequencies --    546.8211               552.8588               568.1046
 Red. masses --      4.0696                 1.1990                 5.3397
 Frc consts  --      0.7169                 0.2159                 1.0154
 IR Inten    --     12.2086                32.5755                 5.4951

                     31                     32                     33
                      A                      A                      A
 Frequencies --    607.7425               744.1841               796.7930
 Red. masses --      4.3871                 1.0976                 2.2454
 Frc consts  --      0.9547                 0.3581                 0.8399
 IR Inten    --      9.2126               102.0665                17.3110

                     34                     35                     36
                      A                      A                      A
 Frequencies --    832.1690               846.9499               934.4213
 Red. masses --      1.1499                 4.3583                 5.0079
 Frc consts  --      0.4692                 1.8420                 2.5763
 IR Inten    --     91.0324                15.0213               130.5899

                     37                     38                     39
                      A                      A                      A
 Frequencies --    951.2897              1004.9918              1016.6858
 Red. masses --      2.8602                 1.1871                 1.6247
 Frc consts  --      1.5250                 0.7064                 0.9894
 IR Inten    --     66.9688               103.5009               168.6481

                     40                     41                     42
                      A                      A                      A
 Frequencies --   1034.8261              1049.1792              1076.6087
 Red. masses --      3.6273                 3.2630                 5.2340
 Frc consts  --      2.2886                 2.1162                 3.5743
 IR Inten    --    125.2278               105.9733                18.7831

                     43                     44                     45
                      A                      A                      A
 Frequencies --   1088.3957              1107.1266              1109.6630
 Red. masses --      4.5984                 4.3373                 2.8655
 Frc consts  --      3.2094                 3.1323                 2.0789
 IR Inten    --     98.8976                41.6172                70.9286

                     46                     47                     48
                      A                      A                      A
 Frequencies --   1126.3398              1130.5837              1197.8037
 Red. masses --      2.0890                 3.5488                 3.1598
 Frc consts  --      1.5614                 2.6726                 2.6710
 IR Inten    --     19.4159                27.3225               105.8879

                     49                     50                     51
                      A                      A                      A
 Frequencies --   1209.4982              1253.8783              1271.8577
 Red. masses --      1.4088                 1.1889                 1.1754
 Frc consts  --      1.2142                 1.1013                 1.1202
 IR Inten    --     12.1781                10.0399                54.0452

                     52                     53                     54
                      A                      A                      A
 Frequencies --   1278.0045              1320.4901              1345.7079
 Red. masses --      1.1542                 1.2095                 1.2058
 Frc consts  --      1.1107                 1.2426                 1.2866
 IR Inten    --     82.8799                30.4855                 0.4101

                     55                     56                     57
                      A                      A                      A
 Frequencies --   1357.1003              1370.2867              1393.7103
 Red. masses --      1.1731                 1.2186                 1.1959
 Frc consts  --      1.2729                 1.3481                 1.3687
 IR Inten    --      7.0311                10.2727                23.9319

                     58                     59                     60
                      A                      A                      A
 Frequencies --   1404.9157              1410.6382              1427.5715
 Red. masses --      1.2406                 1.2787                 1.4150
 Frc consts  --      1.4427                 1.4992                 1.6990
 IR Inten    --     13.4354                20.0670                28.4850

                     61                     62                     63
                      A                      A                      A
 Frequencies --   1434.8987              1443.5295              1452.4995
 Red. masses --      1.3021                 1.4824                 1.5263
 Frc consts  --      1.5795                 1.8199                 1.8972
 IR Inten    --      1.6904                31.6690                23.4995

                     64                     65                     66
                      A                      A                      A
 Frequencies --   1478.1738              1529.2882              1565.2870
 Red. masses --      1.5976                 1.0788                 1.2688
 Frc consts  --      2.0566                 1.4865                 1.8317
 IR Inten    --     23.5171                 2.6264                37.4572

                     67                     68                     69
                      A                      A                      A
 Frequencies --   1742.4549              1744.6413              2976.3523
 Red. masses --      1.0695                 1.0789                 1.0837
 Frc consts  --      1.9132                 1.9348                 5.6565
 IR Inten    --     32.8489               200.4455                55.1582

                     70                     71                     72
                      A                      A                      A
 Frequencies --   3007.6211              3023.9675              3045.2452
 Red. masses --      1.0845                 1.0848                 1.0835
 Frc consts  --      5.7800                 5.8445                 5.9202
 IR Inten    --     24.0134                63.1328                 4.6151

                     73                     74                     75
                      A                      A                      A
 Frequencies --   3052.7802              3063.1018              3177.7910
 Red. masses --      1.0724                 1.0857                 1.0952
 Frc consts  --      5.8884                 6.0016                 6.5164
 IR Inten    --     51.4240                45.9720                 6.8021

                     76                     77                     78
                      A                      A                      A
 Frequencies --   3309.2296              3416.7744              3490.2178
 Red. masses --      1.0672                 1.0623                 1.0594
 Frc consts  --      6.8857                 7.3072                 7.6038
 IR Inten    --    403.6104              1075.3692               492.0115

                     79                     80                     81
                      A                      A                      A
 Frequencies --   3696.0993              3724.2690              3735.8931
 Red. masses --      1.0668                 1.0654                 1.0661
 Frc consts  --      8.5866                 8.7069                 8.7671
 IR Inten    --     68.5095                30.8153                21.7550

                     82                     83                     84
                      A                      A                      A
 Frequencies --   3744.6834              3781.4203              3794.5636
 Red. masses --      1.0665                 1.0680                 1.0676
 Frc consts  --      8.8112                 8.9976                 9.0570
 IR Inten    --     20.6902                47.9496                47.4058

 - Thermochemistry -
 -------------------
 Temperature   298.150 Kelvin.  Pressure   1.00000 Atm.
 Atom     1 has atomic number  8 and mass  15.99491

 Molecular mass:   216.08452 amu.
 Principal axes and moments of inertia in atomic units:
                           1         2         3
     Eigenvalues --  2212.869053789.710634670.79300
           X            0.99999  -0.00135   0.00298
           Y            0.00133   0.99998   0.00675
           Z           -0.00298  -0.00675   0.99997
 This molecule is an asymmetric top.
 Rotational symmetry number  1.
 Warning -- assumption of classical behavior for rotation
           may cause significant error
 Rotational temperatures (Kelvin)      0.03914     0.02285     0.01854
 Rotational constants (GHZ):           0.81557     0.47622     0.38639
    1 imaginary frequencies ignored.
 Zero-point vibrational energy     653471.3 (Joules/Mol)
                                  156.18338 (Kcal/Mol)
 Warning -- explicit consideration of  30 degrees of freedom as
           vibrations may cause significant error
 Vibrational temperatures:     52.58    67.22    90.32   130.37   169.67
          (Kelvin)            249.21   269.57   312.01   320.67   350.40
                              369.76   383.39   389.17   427.36   447.67
                              459.78   501.43   537.88   547.36   578.82
                              591.62   648.69   666.56   676.43   712.74
                              773.78   786.75   795.44   817.37   874.40
                             1070.71  1146.41  1197.30  1218.57  1344.42
                             1368.69  1445.96  1462.78  1488.88  1509.53
                             1549.00  1565.96  1592.91  1596.56  1620.55
                             1626.66  1723.37  1740.20  1804.05  1829.92
                             1838.76  1899.89  1936.17  1952.56  1971.53
                             2005.24  2021.36  2029.59  2053.95  2064.50
                             2076.91  2089.82  2126.76  2200.30  2252.10
                             2507.00  2510.15  4282.30  4327.29  4350.81
                             4381.42  4392.26  4407.11  4572.13  4761.24
                             4915.97  5021.64  5317.86  5358.39  5375.11
                             5387.76  5440.61  5459.52

 Zero-point correction=                           0.248894 (Hartree/Particle)
 Thermal correction to Energy=                    0.265450
 Thermal correction to Enthalpy=                  0.266394
 Thermal correction to Gibbs Free Energy=         0.205658
 Sum of electronic and zero-point Energies=           -839.741467
 Sum of electronic and thermal Energies=              -839.724911
 Sum of electronic and thermal Enthalpies=            -839.723967
 Sum of electronic and thermal Free Energies=         -839.784703

                     E (Thermal)             CV                S
                      KCal/Mol        Cal/Mol-Kelvin    Cal/Mol-Kelvin
 Total                  166.572             62.324            127.831
 Electronic               0.000              0.000              0.000
 Translational            0.889              2.981             42.015
 Rotational               0.889              2.981             32.038
 Vibrational            164.795             56.362             53.778
 Vibration     1          0.594              1.982              5.438
 Vibration     2          0.595              1.979              4.952
 Vibration     3          0.597              1.972              4.368
 Vibration     4          0.602              1.956              3.647
 Vibration     5          0.608              1.934              3.134
 Vibration     6          0.627              1.875              2.400
 Vibration     7          0.632              1.857              2.254
 Vibration     8          0.646              1.815              1.985
 Vibration     9          0.649              1.806              1.936
 Vibration    10          0.659              1.773              1.777
 Vibration    11          0.667              1.751              1.682
 Vibration    12          0.672              1.735              1.619
 Vibration    13          0.674              1.728              1.593
 Vibration    14          0.691              1.679              1.434
 Vibration    15          0.700              1.652              1.356
 Vibration    16          0.705              1.636              1.312
 Vibration    17          0.726              1.578              1.173
 Vibration    18          0.745              1.526              1.064
 Vibration    19          0.750              1.512              1.037
 Vibration    20          0.768              1.465              0.954
 Vibration    21          0.775              1.446              0.922
 Vibration    22          0.810              1.359              0.793
 Vibration    23          0.821              1.332              0.757
 Vibration    24          0.827              1.316              0.737
 Vibration    25          0.851              1.260              0.670
 Vibration    26          0.893              1.166              0.570
 Vibration    27          0.902              1.147              0.551
 Vibration    28          0.908              1.133              0.538
 Vibration    29          0.924              1.100              0.508
 Vibration    30          0.967              1.015              0.437

 Normal termination of Gaussian 09 at Mon Jan 23 23:17:08 2017.
