 Gaussian 09, Revision D.01,
 Gaussian 09:  ES64L-G09RevD.01 24-Apr-2013

 ------------------------------------------------------
 # opt=(modredundant,MaxCycle=1000) freq B3LYP/6-31G(d)
 ------------------------------------------------------

 ------------------------
 boat5_Beta_B3LYP_6-31G_d
 ------------------------
 Symbolic Z-matrix:
 Charge =  0 Multiplicity = 1

 SCF Done:  E(RB3LYP) =  -839.930525348     A.U. after   14 cycles
 SCF Done:  E(RB3LYP) =  -839.952978713     A.U. after   12 cycles
 SCF Done:  E(RB3LYP) =  -839.966009130     A.U. after   11 cycles
 SCF Done:  E(RB3LYP) =  -839.970371558     A.U. after   11 cycles
 SCF Done:  E(RB3LYP) =  -839.973804308     A.U. after   12 cycles
 SCF Done:  E(RB3LYP) =  -839.975279420     A.U. after   11 cycles
 SCF Done:  E(RB3LYP) =  -839.976404827     A.U. after   11 cycles
 SCF Done:  E(RB3LYP) =  -839.977482913     A.U. after   12 cycles
 SCF Done:  E(RB3LYP) =  -839.978330576     A.U. after   11 cycles
 SCF Done:  E(RB3LYP) =  -839.978960294     A.U. after   12 cycles
 SCF Done:  E(RB3LYP) =  -839.980839800     A.U. after    9 cycles
 SCF Done:  E(RB3LYP) =  -839.980842478     A.U. after    9 cycles
 SCF Done:  E(RB3LYP) =  -839.980843699     A.U. after    7 cycles
 SCF Done:  E(RB3LYP) =  -839.980845219     A.U. after    8 cycles
 SCF Done:  E(RB3LYP) =  -839.980846783     A.U. after    8 cycles
 SCF Done:  E(RB3LYP) =  -839.980847914     A.U. after    7 cycles
 SCF Done:  E(RB3LYP) =  -839.980848203     A.U. after    7 cycles
 SCF Done:  E(RB3LYP) =  -839.980848452     A.U. after    7 cycles
 SCF Done:  E(RB3LYP) =  -839.980848452     A.U. after    7 cycles
 Optimization completed.
    -- Stationary point found.
 Normal termination of Gaussian 09 at Mon Jan 23 22:37:18 2017.

 --------------------------------------------------------------------
 #N Geom=AllCheck Guess=TCheck SCRF=Check GenChk RB3LYP/6-31G(d) Freq
 --------------------------------------------------------------------

 Structure from the checkpoint file:  "/home/iawad/Gau-24911.chk"
 ------------------------
 boat5_Beta_B3LYP_6-31G_d
 ------------------------
 Charge =  0 Multiplicity = 1

                         Standard orientation:
 ---------------------------------------------------------------------
 Center     Atomic      Atomic             Coordinates (Angstroms)
 Number     Number       Type             X           Y           Z
 ---------------------------------------------------------------------
      1          8           0       -1.512401    0.167505   -0.177466
      2          6           0        0.327060    1.097461    1.170059
      3          6           0        0.618197   -1.131691   -0.056887
      4          6           0        1.307352    0.164942    0.454315
      5          6           0       -0.906181   -1.138158    0.105498
      6          6           0       -0.894850    1.369898    0.293434
      7          1           0        2.061750   -0.152149    1.191929
      8          1           0       -1.629568    1.892141    0.923159
      9          1           0        0.823902    2.056218    1.384134
     10          1           0        0.803062   -1.174671   -1.139735
     11          6           0       -0.571959    2.212129   -0.964029
     12          1           0       -1.492629    2.670433   -1.348490
     13          1           0       -0.181528    1.543539   -1.730794
     14          1           0       -1.170195   -1.399110    1.136508
     15          8           0       -1.436350   -2.023646   -0.811397
     16          1           0       -2.400057   -2.076881   -0.627703
     17          8           0        0.445094    3.202562   -0.767536
     18          1           0        0.104256    3.889949   -0.173966
     19          8           0        1.128707   -2.271833    0.600086
     20          1           0        2.052321   -2.344020    0.279381
     21          8           0        1.978646    0.796362   -0.641569
     22          1           0        1.908368    1.766454   -0.562158
     23          8           0       -0.151470    0.512586    2.373824
     24          1           0        0.590585    0.069949    2.816390
     25          8           0       -4.023281   -1.094476   -0.347723
     26          1           0       -3.377554   -0.368536   -0.222263
     27          1           0       -4.315890   -0.986105   -1.265984
     28          8           0        3.581892   -1.568869   -0.747909
     29          1           0        3.294182   -0.642871   -0.879860
     30          1           0        3.564575   -1.953350   -1.637368
 ---------------------------------------------------------------------

 SCF Done:  E(RB3LYP) =  -839.980848452     A.U. after    1 cycles

 The electronic state is 1-A.
 Alpha  occ. eigenvalues --  -19.18190 -19.16636 -19.16365 -19.15950 -19.15065
 Alpha  occ. eigenvalues --  -19.14543 -19.13198 -19.12520 -10.27573 -10.25481
 Alpha  occ. eigenvalues --  -10.25303 -10.24835 -10.24660 -10.22886  -1.06465
 Alpha  occ. eigenvalues --   -1.04826  -1.04000  -1.03214  -1.00924  -1.00294
 Alpha  occ. eigenvalues --   -1.00146  -0.99070  -0.78520  -0.76067  -0.69807
 Alpha  occ. eigenvalues --   -0.66102  -0.63073  -0.56215  -0.55455  -0.53917
 Alpha  occ. eigenvalues --   -0.52974  -0.52666  -0.52352  -0.51123  -0.50252
 Alpha  occ. eigenvalues --   -0.48706  -0.45754  -0.45312  -0.42854  -0.42244
 Alpha  occ. eigenvalues --   -0.41789  -0.40879  -0.39935  -0.38567  -0.38339
 Alpha  occ. eigenvalues --   -0.36366  -0.35597  -0.35260  -0.33108  -0.32182
 Alpha  occ. eigenvalues --   -0.31510  -0.30437  -0.29957  -0.29173  -0.28625
 Alpha  occ. eigenvalues --   -0.27151  -0.25569  -0.25060
 Alpha virt. eigenvalues --    0.03424   0.05891   0.06444   0.06830   0.08881
 Alpha virt. eigenvalues --    0.11019   0.11705   0.12454   0.13578   0.14781
 Alpha virt. eigenvalues --    0.15181   0.16175   0.17334   0.18534   0.19323

 Mulliken charges:
               1
     1  O   -0.563503
     2  C    0.069261
     3  C    0.101693
     4  C    0.088741
     5  C    0.359692
     6  C    0.132981
     7  H    0.132952
     8  H    0.138699
     9  H    0.117508
    10  H    0.136715
    11  C   -0.077622
    12  H    0.144876
    13  H    0.187268
    14  H    0.146731
    15  O   -0.640426
    16  H    0.415509
    17  O   -0.626049
    18  H    0.402691
    19  O   -0.660670
    20  H    0.422675
    21  O   -0.680653
    22  H    0.431868
    23  O   -0.624785
    24  H    0.405605
    25  O   -0.796374
    26  H    0.419199
    27  H    0.393318
    28  O   -0.806932
    29  H    0.430484
    30  H    0.398549
 Sum of Mulliken charges =   0.00000

 Dipole moment (field-independent basis, Debye):
    X=              0.6314    Y=              5.0114    Z=             -1.1114  Tot=              5.1719
 Quadrupole moment (field-independent basis, Debye-Ang):
   XX=            -85.5002   YY=            -81.1857   ZZ=            -78.9728
   XY=             -4.7883   XZ=              5.1959   YZ=              5.8717

  Exact polarizability:  98.836  -1.984 101.156   1.994   0.754  83.744
 Approx polarizability: 128.137  -0.931 135.757  -0.015   0.753 122.842

 ******    1 imaginary frequencies (negative Signs) ******

                      1                      2                      3
                      A                      A                      A
 Frequencies --    -22.9092                44.1560                61.1457
 Red. masses --      5.0657                 5.5997                 5.6736
 Frc consts  --      0.0016                 0.0064                 0.0125
 IR Inten    --      9.4333                 1.1290                 7.9297

                      4                      5                      6
                      A                      A                      A
 Frequencies --     71.3999                97.1409               113.6581
 Red. masses --      6.6677                 4.5903                 4.5501
 Frc consts  --      0.0200                 0.0255                 0.0346
 IR Inten    --      1.4739                 6.8685                 2.2274

                      7                      8                      9
                      A                      A                      A
 Frequencies --    147.6995               169.1892               174.9706
 Red. masses --      3.8571                 3.8937                 5.1760
 Frc consts  --      0.0496                 0.0657                 0.0934
 IR Inten    --      2.5073                10.8463                11.5304

                     10                     11                     12
                      A                      A                      A
 Frequencies --    197.0220               212.4697               239.7441
 Red. masses --      4.8487                 3.7500                 1.8033
 Frc consts  --      0.1109                 0.0997                 0.0611
 IR Inten    --      2.0467                36.8195                75.1652

                     13                     14                     15
                      A                      A                      A
 Frequencies --    247.0751               256.4567               269.6965
 Red. masses --      2.1938                 1.8869                 1.7665
 Frc consts  --      0.0789                 0.0731                 0.0757
 IR Inten    --     87.8760                75.7305                 9.9962

                     16                     17                     18
                      A                      A                      A
 Frequencies --    278.3226               309.1195               328.0822
 Red. masses --      1.3713                 1.8037                 4.4571
 Frc consts  --      0.0626                 0.1015                 0.2827
 IR Inten    --     84.6511                69.2988                 7.7855

                     19                     20                     21
                      A                      A                      A
 Frequencies --    341.7740               345.8072               363.0310
 Red. masses --      1.3698                 1.1231                 1.7626
 Frc consts  --      0.0943                 0.0791                 0.1369
 IR Inten    --     99.0647                67.7688                45.1595

                     22                     23                     24
                      A                      A                      A
 Frequencies --    389.2468               420.1112               466.1631
 Red. masses --      4.3950                 5.1150                 3.1452
 Frc consts  --      0.3923                 0.5319                 0.4027
 IR Inten    --     33.6478                20.1337                 5.0954

                     25                     26                     27
                      A                      A                      A
 Frequencies --    485.3252               495.5868               541.7763
 Red. masses --      3.0307                 2.9909                 4.6463
 Frc consts  --      0.4206                 0.4328                 0.8035
 IR Inten    --     15.3802                30.3681                 6.1299

                     28                     29                     30
                      A                      A                      A
 Frequencies --    557.3945               565.4528               607.9883
 Red. masses --      1.8969                 4.4648                 3.6007
 Frc consts  --      0.3472                 0.8411                 0.7842
 IR Inten    --    111.9701                 8.6983                 6.4955

                     31                     32                     33
                      A                      A                      A
 Frequencies --    649.2501               675.3236               734.4970
 Red. masses --      1.1056                 1.0700                 1.0646
 Frc consts  --      0.2746                 0.2875                 0.3384
 IR Inten    --    284.6284               234.6080               131.7615

                     34                     35                     36
                      A                      A                      A
 Frequencies --    797.7858               840.3383               854.4739
 Red. masses --      2.1865                 1.3389                 3.1064
 Frc consts  --      0.8199                 0.5571                 1.3363
 IR Inten    --      9.3825               118.1390                27.3678

                     37                     38                     39
                      A                      A                      A
 Frequencies --    915.9569               957.7833              1013.9905
 Red. masses --      4.9183                 3.2833                 1.8996
 Frc consts  --      2.4312                 1.7746                 1.1508
 IR Inten    --    165.7711                34.8631                99.2160

                     40                     41                     42
                      A                      A                      A
 Frequencies --   1025.8380              1047.3861              1077.8256
 Red. masses --      3.3271                 3.5477                 4.9145
 Frc consts  --      2.0629                 2.2931                 3.3638
 IR Inten    --     64.2023               105.3688                14.3711

                     43                     44                     45
                      A                      A                      A
 Frequencies --   1087.4744              1111.1243              1121.2598
 Red. masses --      4.9939                 2.9303                 3.5061
 Frc consts  --      3.4796                 2.1315                 2.5971
 IR Inten    --     68.9067                47.7786               121.2965

                     46                     47                     48
                      A                      A                      A
 Frequencies --   1127.2581              1136.5460              1190.6393
 Red. masses --      2.8461                 3.3344                 3.4019
 Frc consts  --      2.1308                 2.5377                 2.8414
 IR Inten    --     13.0261                19.1235               107.6656

                     49                     50                     51
                      A                      A                      A
 Frequencies --   1210.2046              1253.0238              1273.1701
 Red. masses --      1.3971                 1.1500                 1.1427
 Frc consts  --      1.2056                 1.0638                 1.0913
 IR Inten    --     25.2361                13.0580                79.4448

                     52                     53                     54
                      A                      A                      A
 Frequencies --   1293.1133              1335.0053              1341.6896
 Red. masses --      1.1651                 1.1931                 1.1555
 Frc consts  --      1.1478                 1.2529                 1.2256
 IR Inten    --     34.1506                18.3622                 9.0036

                     55                     56                     57
                      A                      A                      A
 Frequencies --   1358.0871              1366.9191              1383.4548
 Red. masses --      1.1713                 1.1830                 1.2642
 Frc consts  --      1.2729                 1.3023                 1.4256
 IR Inten    --      0.5661                 4.1946                20.7579

                     58                     59                     60
                      A                      A                      A
 Frequencies --   1396.6537              1397.8816              1427.1421
 Red. masses --      1.2478                 1.2552                 1.3486
 Frc consts  --      1.4340                 1.4451                 1.6184
 IR Inten    --     81.4499                19.5150                 7.7246

                     61                     62                     63
                      A                      A                      A
 Frequencies --   1431.4219              1440.1804              1469.4378
 Red. masses --      1.3791                 1.3526                 1.5266
 Frc consts  --      1.6648                 1.6529                 1.9421
 IR Inten    --     25.4785                 1.4334                59.4730

                     64                     65                     66
                      A                      A                      A
 Frequencies --   1483.2367              1532.7011              1549.9326
 Red. masses --      1.3840                 1.0798                 1.5050
 Frc consts  --      1.7940                 1.4945                 2.1301
 IR Inten    --      4.3038                 1.5410                29.3938

                     67                     68                     69
                      A                      A                      A
 Frequencies --   1729.2050              1729.9427              2993.7240
 Red. masses --      1.0774                 1.0771                 1.0840
 Frc consts  --      1.8982                 1.8992                 5.7240
 IR Inten    --     46.4557                61.2420                47.8309

                     70                     71                     72
                      A                      A                      A
 Frequencies --   3009.6885              3025.2128              3027.2509
 Red. masses --      1.0833                 1.0857                 1.0836
 Frc consts  --      5.7814                 5.8543                 5.8510
 IR Inten    --     43.5013                61.8590                14.6509

                     73                     74                     75
                      A                      A                      A
 Frequencies --   3052.5541              3074.3366              3169.2879
 Red. masses --      1.0722                 1.0860                 1.0957
 Frc consts  --      5.8866                 6.0475                 6.4841
 IR Inten    --     56.9866                44.0007                10.9360

                     76                     77                     78
                      A                      A                      A
 Frequencies --   3523.1837              3574.3357              3602.6799
 Red. masses --      1.0650                 1.0640                 1.0560
 Frc consts  --      7.7889                 8.0091                 8.0758
 IR Inten    --    183.7354               142.4463               439.0426

                     79                     80                     81
                      A                      A                      A
 Frequencies --   3617.8734              3650.2795              3734.8349
 Red. masses --      1.0572                 1.0663                 1.0662
 Frc consts  --      8.1530                 8.3712                 8.7627
 IR Inten    --    357.1506                70.1294                19.9582

                     82                     83                     84
                      A                      A                      A
 Frequencies --   3743.8650              3793.8916              3804.1159
 Red. masses --      1.0665                 1.0722                 1.0731
 Frc consts  --      8.8075                 9.0924                 9.1491
 IR Inten    --     23.6630                76.9994                74.4142

 - Thermochemistry -
 -------------------
 Temperature   298.150 Kelvin.  Pressure   1.00000 Atm.
 Atom     1 has atomic number  8 and mass  15.99491

 Molecular mass:   216.08452 amu.
 Principal axes and moments of inertia in atomic units:
                           1         2         3
     Eigenvalues --  2704.766493359.942974702.77546
           X            0.99965  -0.02628   0.00402
           Y            0.02626   0.99964   0.00558
           Z           -0.00417  -0.00547   0.99998
 This molecule is an asymmetric top.
 Rotational symmetry number  1.
 Warning -- assumption of classical behavior for rotation
           may cause significant error
 Rotational temperatures (Kelvin)      0.03202     0.02578     0.01842
 Rotational constants (GHZ):           0.66724     0.53713     0.38376
    1 imaginary frequencies ignored.
 Zero-point vibrational energy     651733.1 (Joules/Mol)
                                  155.76796 (Kcal/Mol)
 Warning -- explicit consideration of  29 degrees of freedom as
           vibrations may cause significant error
 Vibrational temperatures:     63.53    87.97   102.73   139.76   163.53
          (Kelvin)            212.51   243.43   251.74   283.47   305.70
                              344.94   355.49   368.98   388.03   400.44
                              444.75   472.04   491.74   497.54   522.32
                              560.04   604.45   670.70   698.27   713.04
                              779.49   801.97   813.56   874.76   934.12
                              971.64  1056.78  1147.83  1209.06  1229.40
                             1317.86  1378.03  1458.90  1475.95  1506.95
                             1550.75  1564.63  1598.66  1613.24  1621.87
                             1635.23  1713.06  1741.21  1802.82  1831.81
                             1860.50  1920.77  1930.39  1953.98  1966.69
                             1990.48  2009.47  2011.24  2053.34  2059.49
                             2072.10  2114.19  2134.04  2205.21  2230.00
                             2487.94  2489.00  4307.30  4330.27  4352.60
                             4355.53  4391.94  4423.28  4559.89  5069.07
                             5142.67  5183.45  5205.31  5251.93  5373.59
                             5386.58  5458.56  5473.27

 Zero-point correction=                           0.248232 (Hartree/Particle)
 Thermal correction to Energy=                    0.265301
 Thermal correction to Enthalpy=                  0.266245
 Thermal correction to Gibbs Free Energy=         0.204700
 Sum of electronic and zero-point Energies=           -839.732616
 Sum of electronic and thermal Energies=              -839.715547
 Sum of electronic and thermal Enthalpies=            -839.714603
 Sum of electronic and thermal Free Energies=         -839.776148

                     E (Thermal)             CV                S
                      KCal/Mol        Cal/Mol-Kelvin    Cal/Mol-Kelvin
 Total                  166.479             63.344            129.533
 Electronic               0.000              0.000              0.000
 Translational            0.889              2.981             42.015
 Rotational               0.889              2.981             32.125
 Vibrational            164.701             57.383             55.393
 Vibration     1          0.595              1.980              5.063
 Vibration     2          0.597              1.973              4.420
 Vibration     3          0.598              1.968              4.114
 Vibration     4          0.603              1.951              3.511
 Vibration     5          0.607              1.938              3.205
 Vibration     6          0.617              1.905              2.702
 Vibration     7          0.625              1.880              2.444
 Vibration     8          0.627              1.873              2.381
 Vibration     9          0.636              1.844              2.161
 Vibration    10          0.644              1.822              2.022
 Vibration    11          0.657              1.780              1.805
 Vibration    12          0.661              1.768              1.751
 Vibration    13          0.666              1.752              1.686
 Vibration    14          0.674              1.729              1.598
 Vibration    15          0.679              1.714              1.544
 Vibration    16          0.698              1.656              1.367
 Vibration    17          0.711              1.619              1.270
 Vibration    18          0.721              1.592              1.204
 Vibration    19          0.724              1.584              1.185
 Vibration    20          0.737              1.548              1.109
 Vibration    21          0.757              1.493              1.003
 Vibration    22          0.783              1.427              0.892
 Vibration    23          0.824              1.325              0.748
 Vibration    24          0.841              1.283              0.696
 Vibration    25          0.851              1.260              0.669
 Vibration    26          0.897              1.158              0.561
 Vibration    27          0.913              1.124              0.529
 Vibration    28          0.921              1.106              0.513
 Vibration    29          0.967              1.015              0.436

 Normal termination of Gaussian 09 at Mon Jan 23 22:41:02 2017.
