 Gaussian 09, Revision E.01,
 Gaussian 09:  ES64L-G09RevE.01 30-Nov-2015

 ------------------------------------------------------
 # opt=(modredundant,MaxCycle=1000) freq B3LYP/6-31G(d)
 ------------------------------------------------------

 -------------------
 Title Card Required
 -------------------
 Symbolic Z-matrix:
 Charge =  0 Multiplicity = 1

 SCF Done:  E(RB3LYP) =  -839.947578219     A.U. after   14 cycles
 SCF Done:  E(RB3LYP) =  -839.967410982     A.U. after   12 cycles
 SCF Done:  E(RB3LYP) =  -839.982056829     A.U. after   12 cycles
 SCF Done:  E(RB3LYP) =  -839.985788725     A.U. after   11 cycles
 SCF Done:  E(RB3LYP) =  -839.987993690     A.U. after   11 cycles
 SCF Done:  E(RB3LYP) =  -839.988972466     A.U. after   11 cycles
 SCF Done:  E(RB3LYP) =  -839.989886491     A.U. after   11 cycles
 SCF Done:  E(RB3LYP) =  -839.990447627     A.U. after   11 cycles
 SCF Done:  E(RB3LYP) =  -839.991038785     A.U. after   11 cycles
 SCF Done:  E(RB3LYP) =  -839.991781434     A.U. after   12 cycles
 SCF Done:  E(RB3LYP) =  -839.993565903     A.U. after    7 cycles
 SCF Done:  E(RB3LYP) =  -839.993572707     A.U. after    7 cycles
 SCF Done:  E(RB3LYP) =  -839.993574793     A.U. after    7 cycles
 SCF Done:  E(RB3LYP) =  -839.993575821     A.U. after    7 cycles
 SCF Done:  E(RB3LYP) =  -839.993576596     A.U. after    7 cycles
 SCF Done:  E(RB3LYP) =  -839.993577326     A.U. after    7 cycles
 SCF Done:  E(RB3LYP) =  -839.993578217     A.U. after    7 cycles
 SCF Done:  E(RB3LYP) =  -839.993578935     A.U. after    7 cycles
 SCF Done:  E(RB3LYP) =  -839.993579165     A.U. after    7 cycles
 Optimization completed.
    -- Stationary point found.

 1\1\GINC-TATANKA\FOpt\RB3LYP\6-31G(d)\C6H16O8\AALRAWAS\16-Jan-2017\0\\
 # opt=(modredundant,MaxCycle=1000) freq B3LYP/6-31G(d)\\Title Card Req
 uired\\0,1\H,0.2253824603,0.5891966503,-0.5678008987\C,-0.3841629146,0
 .453477961,0.3319203669\C,-2.2727607854,2.0962282142,0.4891641448\C,-2
 .6831465039,-0.42261826,0.750748388\C,-3.0978015527,1.0253163433,1.194
 4714703\O,-1.4883001025,-0.3434756573,-0.1089299325\C,-0.8011879584,1.
 8728596121,0.7955689773\H,-2.9170777301,1.1185222917,2.2760476163\H,-0
 .6762207203,1.9563013693,1.8865963791\C,0.4768637527,-0.2654731102,1.3

 Normal termination of Gaussian 09 at Mon Jan 16 22:13:15 2017.

 --------------------------------------------------------------------
 #N Geom=AllCheck Guess=TCheck SCRF=Check GenChk RB3LYP/6-31G(d) Freq
 --------------------------------------------------------------------

 Structure from the checkpoint file:  "//home/aalrawas/scratch/Gau-27187.chk"
 -------------------
 Title Card Required
 -------------------
 Charge =  0 Multiplicity = 1

                         Standard orientation:
 ---------------------------------------------------------------------
 Center     Atomic      Atomic             Coordinates (Angstroms)
 Number     Number       Type             X           Y           Z
 ---------------------------------------------------------------------
      1          1           0       -1.654279   -1.035296    1.238777
      2          6           0       -1.409957   -0.723718    0.217655
      3          6           0        0.081954    1.290878    0.141759
      4          6           0        0.655340   -0.832299   -1.179142
      5          6           0        0.705307    0.736414   -1.134566
      6          8           0       -0.136686   -1.325451   -0.037887
      7          6           0       -1.361875    0.825789    0.233154
      8          1           0        0.127400    1.123250   -1.987523
      9          1           0       -1.890763    1.220283   -0.648647
     10          6           0       -2.504415   -1.260369   -0.703793
     11          1           0       -2.527735   -2.357387   -0.649996
     12          1           0       -2.313930   -0.971915   -1.749410
     13          1           0        0.637206    0.928601    1.018274
     14          8           0       -3.715249   -0.676007   -0.221811
     15          1           0       -4.439969   -0.934087   -0.810132
     16          8           0        2.051935    1.196930   -1.242642
     17          1           0        1.993102    2.160136   -1.109051
     18          8           0        0.170127    2.709268    0.053803
     19          1           0       -0.348878    3.060624    0.796603
     20          8           0       -1.930932    1.386378    1.409746
     21          1           0       -2.884245    1.204091    1.369711
     22          1           0        0.114796   -1.138439   -2.083113
     23          8           0        1.842300   -1.489762   -1.193032
     24          1           0        2.493142   -1.113237   -0.535332
     25          8           0        3.458574   -0.389520    0.663269
     26          1           0        2.841273   -0.539239    1.416394
     27          1           0        3.206188    0.470003    0.278717
     28          8           0        1.394356   -1.253137    2.304735
     29          1           0        0.866232   -1.450792    1.498745
     30          1           0        1.706951   -2.116358    2.616142
 ---------------------------------------------------------------------

 SCF Done:  E(RB3LYP) =  -839.993579165     A.U. after    1 cycles

 The electronic state is 1-A.
 Alpha  occ. eigenvalues --  -19.17433 -19.16869 -19.16334 -19.16086 -19.15938
 Alpha  occ. eigenvalues --  -19.14752 -19.13391 -19.12592 -10.29294 -10.25246
 Alpha  occ. eigenvalues --  -10.25145 -10.24914 -10.24738 -10.24344  -1.06969
 Alpha  occ. eigenvalues --   -1.04668  -1.04506  -1.03428  -1.01661  -1.00618
 Alpha  occ. eigenvalues --   -1.00205  -0.97986  -0.79110  -0.77032  -0.70361
 Alpha  occ. eigenvalues --   -0.64755  -0.63153  -0.57763  -0.56256  -0.55294
 Alpha  occ. eigenvalues --   -0.53543  -0.52669  -0.51231  -0.50815  -0.49431
 Alpha  occ. eigenvalues --   -0.48381  -0.47252  -0.45896  -0.44268  -0.43463
 Alpha  occ. eigenvalues --   -0.42791  -0.40610  -0.39223  -0.38523  -0.37244
 Alpha  occ. eigenvalues --   -0.36582  -0.35927  -0.35153  -0.34145  -0.33059
 Alpha  occ. eigenvalues --   -0.30754  -0.30142  -0.29420  -0.28921  -0.28344
 Alpha  occ. eigenvalues --   -0.27869  -0.27783  -0.26122
 Alpha virt. eigenvalues --    0.03578   0.05611   0.06448   0.07020   0.08756
 Alpha virt. eigenvalues --    0.10348   0.11967   0.12502   0.13721   0.14591
 Alpha virt. eigenvalues --    0.14900   0.15433   0.16337   0.17935   0.18939

 Mulliken charges:
               1
     1  H    0.166350
     2  C    0.115489
     3  C    0.100280
     4  C    0.350135
     5  C    0.077678
     6  O   -0.542684
     7  C    0.098092
     8  H    0.133341
     9  H    0.128498
    10  C   -0.062862
    11  H    0.149195
    12  H    0.130524
    13  H    0.152528
    14  O   -0.632888
    15  H    0.406803
    16  O   -0.646016
    17  H    0.420023
    18  O   -0.663131
    19  H    0.416032
    20  O   -0.651223
    21  H    0.411378
    22  H    0.128488
    23  O   -0.634237
    24  H    0.435841
    25  O   -0.833298
    26  H    0.421261
    27  H    0.407853
    28  O   -0.816307
    29  H    0.433307
    30  H    0.399549
 Sum of Mulliken charges =  -0.00000

 Dipole moment (field-independent basis, Debye):
    X=             -5.7970    Y=              0.2807    Z=             -0.5769  Tot=              5.8324
 Quadrupole moment (field-independent basis, Debye-Ang):
   XX=            -82.6539   YY=            -78.9370   ZZ=            -83.9508
   XY=              6.7858   XZ=              8.9561   YZ=             -3.4819

  Exact polarizability: 107.246   0.940  90.040   0.141   1.290  85.906
 Approx polarizability: 137.203  -2.633 123.541  -1.225   1.354 125.502

                      1                      2                      3
                      A                      A                      A
 Frequencies --     26.5881                51.9978                59.6438
 Red. masses --      5.2706                 5.3364                 6.2261
 Frc consts  --      0.0022                 0.0085                 0.0130
 IR Inten    --      1.6756                 5.4936                 2.0161

                      4                      5                      6
                      A                      A                      A
 Frequencies --     85.2320               114.4758               125.2178
 Red. masses --      6.1630                 4.9935                 6.6152
 Frc consts  --      0.0264                 0.0386                 0.0611
 IR Inten    --      1.5258                 5.8436                 1.7762

                      7                      8                      9
                      A                      A                      A
 Frequencies --    162.4763               170.3161               205.1627
 Red. masses --      3.7904                 4.9292                 3.1833
 Frc consts  --      0.0590                 0.0842                 0.0789
 IR Inten    --      6.3252                 4.8911                 9.6711

                     10                     11                     12
                      A                      A                      A
 Frequencies --    240.9342               243.8912               244.1491
 Red. masses --      4.6565                 2.6521                 4.1336
 Frc consts  --      0.1593                 0.0929                 0.1452
 IR Inten    --      2.4119                52.8118                 7.1977

                     13                     14                     15
                      A                      A                      A
 Frequencies --    256.8285               272.0426               281.4579
 Red. masses --      1.5188                 1.3151                 3.3198
 Frc consts  --      0.0590                 0.0573                 0.1549
 IR Inten    --     26.8291               175.3970                23.1054

                     16                     17                     18
                      A                      A                      A
 Frequencies --    302.6937               335.8370               367.4119
 Red. masses --      3.9549                 5.3881                 3.3117
 Frc consts  --      0.2135                 0.3581                 0.2634
 IR Inten    --     11.8892                13.7922                36.8957

                     19                     20                     21
                      A                      A                      A
 Frequencies --    387.6486               396.2471               402.1920
 Red. masses --      1.6120                 2.4900                 1.4092
 Frc consts  --      0.1427                 0.2303                 0.1343
 IR Inten    --    128.4396                35.3811                14.2529

                     22                     23                     24
                      A                      A                      A
 Frequencies --    420.1729               435.8211               448.8198
 Red. masses --      4.7752                 1.4870                 2.3846
 Frc consts  --      0.4967                 0.1664                 0.2830
 IR Inten    --      9.3573                72.9290                42.1942

                     25                     26                     27
                      A                      A                      A
 Frequencies --    493.5638               503.2844               542.2926
 Red. masses --      2.9832                 1.3166                 2.2062
 Frc consts  --      0.4282                 0.1965                 0.3823
 IR Inten    --     13.6707               119.6830                33.3073

                     28                     29                     30
                      A                      A                      A
 Frequencies --    546.3651               582.9167               611.5206
 Red. masses --      1.8527                 2.1200                 1.1677
 Frc consts  --      0.3259                 0.4244                 0.2573
 IR Inten    --     41.1985                26.6678               107.5394

                     31                     32                     33
                      A                      A                      A
 Frequencies --    677.3411               709.8584               768.7731
 Red. masses --      1.2921                 3.8841                 3.3003
 Frc consts  --      0.3493                 1.1531                 1.1492
 IR Inten    --     82.2461                32.3312               160.9846

                     34                     35                     36
                      A                      A                      A
 Frequencies --    824.6231               834.5125               903.4659
 Red. masses --      2.5670                 1.2350                 2.2001
 Frc consts  --      1.0285                 0.5067                 1.0581
 IR Inten    --     43.3202               268.2317                 1.3017

                     37                     38                     39
                      A                      A                      A
 Frequencies --    937.1695              1021.8135              1040.6015
 Red. masses --      3.9590                 2.9998                 1.2997
 Frc consts  --      2.0486                 1.8454                 0.8292
 IR Inten    --    149.2737                30.1979               126.8186

                     40                     41                     42
                      A                      A                      A
 Frequencies --   1053.2647              1064.6858              1071.2083
 Red. masses --      3.5001                 2.1908                 6.6434
 Frc consts  --      2.2877                 1.4632                 4.4915
 IR Inten    --     81.4905                56.9553               118.7270

                     43                     44                     45
                      A                      A                      A
 Frequencies --   1097.9698              1114.4268              1131.6217
 Red. masses --      2.5882                 3.1488                 3.1861
 Frc consts  --      1.8383                 2.3041                 2.4038
 IR Inten    --      5.0237                39.2365               117.1269

                     46                     47                     48
                      A                      A                      A
 Frequencies --   1139.6625              1148.5741              1218.9986
 Red. masses --      2.8779                 4.9276                 1.3237
 Frc consts  --      2.2023                 3.8300                 1.1589
 IR Inten    --     29.4013                28.5448                37.7156

                     49                     50                     51
                      A                      A                      A
 Frequencies --   1236.7601              1246.5051              1257.6275
 Red. masses --      1.7611                 1.2075                 1.2234
 Frc consts  --      1.5871                 1.1055                 1.1401
 IR Inten    --    143.1929                 3.8990                76.5427

                     52                     53                     54
                      A                      A                      A
 Frequencies --   1273.3699              1302.9298              1341.5022
 Red. masses --      1.1552                 1.3500                 1.2117
 Frc consts  --      1.1037                 1.3502                 1.2848
 IR Inten    --     26.6589                14.4381                23.1552

                     55                     56                     57
                      A                      A                      A
 Frequencies --   1368.1295              1375.8292              1377.7690
 Red. masses --      1.2110                 1.2091                 1.3002
 Frc consts  --      1.3356                 1.3485                 1.4541
 IR Inten    --     73.1418                 3.1191                21.6235

                     58                     59                     60
                      A                      A                      A
 Frequencies --   1394.0358              1403.2458              1425.0748
 Red. masses --      1.2393                 1.3582                 1.4188
 Frc consts  --      1.4189                 1.5757                 1.6976
 IR Inten    --      3.9777                 7.9192                 4.2169

                     61                     62                     63
                      A                      A                      A
 Frequencies --   1442.7250              1456.1886              1463.5110
 Red. masses --      1.4597                 1.5117                 1.4173
 Frc consts  --      1.7902                 1.8887                 1.7886
 IR Inten    --     38.1905                18.1779                 0.8017

                     64                     65                     66
                      A                      A                      A
 Frequencies --   1475.9052              1523.2845              1553.7320
 Red. masses --      1.5141                 1.1400                 1.0863
 Frc consts  --      1.9432                 1.5585                 1.5450
 IR Inten    --      2.8422               103.6393                 4.1659

                     67                     68                     69
                      A                      A                      A
 Frequencies --   1719.9538              1736.6246              3000.1315
 Red. masses --      1.0738                 1.0737                 1.0818
 Frc consts  --      1.8716                 1.9079                 5.7369
 IR Inten    --     45.6161               110.7365                 5.4606

                     70                     71                     72
                      A                      A                      A
 Frequencies --   3007.1184              3009.6176              3046.1908
 Red. masses --      1.0641                 1.0831                 1.0852
 Frc consts  --      5.6694                 5.7804                 5.9328
 IR Inten    --     35.5090                18.9832                43.0839

                     73                     74                     75
                      A                      A                      A
 Frequencies --   3051.5386              3057.5186              3085.5211
 Red. masses --      1.0872                 1.0993                 1.0888
 Frc consts  --      5.9646                 6.0547                 6.1076
 IR Inten    --    118.1298                57.7713                28.4548

                     76                     77                     78
                      A                      A                      A
 Frequencies --   3217.8932              3484.7287              3535.9334
 Red. masses --      1.0703                 1.0595                 1.0570
 Frc consts  --      6.5296                 7.5802                 7.7866
 IR Inten    --    621.7960               467.9711               398.7750

                     79                     80                     81
                      A                      A                      A
 Frequencies --   3695.2228              3708.4304              3730.6366
 Red. masses --      1.0668                 1.0691                 1.0657
 Frc consts  --      8.5828                 8.6628                 8.7391
 IR Inten    --    112.7810               133.3165                43.6702

                     82                     83                     84
                      A                      A                      A
 Frequencies --   3735.5739              3767.7962              3794.3048
 Red. masses --      1.0661                 1.0668                 1.0698
 Frc consts  --      8.7650                 8.9229                 9.0743
 IR Inten    --     43.7472                29.4677                73.0178

 - Thermochemistry -
 -------------------
 Temperature   298.150 Kelvin.  Pressure   1.00000 Atm.
 Atom     1 has atomic number  1 and mass   1.00783

 Molecular mass:   216.08452 amu.
 Principal axes and moments of inertia in atomic units:
                           1         2         3
     Eigenvalues --  2205.344093855.844764331.22515
           X            0.99977   0.01012   0.01903
           Y           -0.00970   0.99971  -0.02220
           Z           -0.01925   0.02201   0.99957
 This molecule is an asymmetric top.
 Rotational symmetry number  1.
 Warning -- assumption of classical behavior for rotation
           may cause significant error
 Rotational temperatures (Kelvin)      0.03927     0.02246     0.02000
 Rotational constants (GHZ):           0.81835     0.46805     0.41668
 Zero-point vibrational energy     654229.5 (Joules/Mol)
                                  156.36460 (Kcal/Mol)
 Warning -- explicit consideration of  30 degrees of freedom as
           vibrations may cause significant error
 Vibrational temperatures:     38.25    74.81    85.81   122.63   164.70
          (Kelvin)            180.16   233.77   245.05   295.18   346.65
                              350.90   351.28   369.52   391.41   404.95
                              435.51   483.19   528.62   557.74   570.11
                              578.66   604.53   627.05   645.75   710.13
                              724.11   780.24   786.10   838.69   879.84
                              974.54  1021.33  1106.09  1186.45  1200.68
                             1299.88  1348.38  1470.16  1497.19  1515.41
                             1531.84  1541.23  1579.73  1603.41  1628.15
                             1639.72  1652.54  1753.86  1779.42  1793.44
                             1809.44  1832.09  1874.62  1930.12  1968.43
                             1979.51  1982.30  2005.70  2018.96  2050.36
                             2075.76  2095.13  2105.66  2123.50  2191.66
                             2235.47  2474.63  2498.61  4316.51  4326.57
                             4330.16  4382.78  4390.48  4399.08  4439.37
                             4629.82  5013.74  5087.41  5316.59  5335.60
                             5367.55  5374.65  5421.01  5459.15

 Zero-point correction=                           0.249183 (Hartree/Particle)
 Thermal correction to Energy=                    0.266420
 Thermal correction to Enthalpy=                  0.267364
 Thermal correction to Gibbs Free Energy=         0.204868
 Sum of electronic and zero-point Energies=           -839.744396
 Sum of electronic and thermal Energies=              -839.727159
 Sum of electronic and thermal Enthalpies=            -839.726215
 Sum of electronic and thermal Free Energies=         -839.788711

                     E (Thermal)             CV                S
                      KCal/Mol        Cal/Mol-Kelvin    Cal/Mol-Kelvin
 Total                  167.181             63.969            131.533
 Electronic               0.000              0.000              0.000
 Translational            0.889              2.981             42.015
 Rotational               0.889              2.981             31.977
 Vibrational            165.403             58.007             57.541
 Vibration     1          0.593              1.984              6.069
 Vibration     2          0.596              1.977              4.740
 Vibration     3          0.597              1.974              4.469
 Vibration     4          0.601              1.959              3.767
 Vibration     5          0.607              1.937              3.192
 Vibration     6          0.610              1.928              3.018
 Vibration     7          0.623              1.888              2.521
 Vibration     8          0.625              1.879              2.432
 Vibration     9          0.640              1.833              2.086
 Vibration    10          0.658              1.778              1.796
 Vibration    11          0.659              1.773              1.774
 Vibration    12          0.659              1.772              1.772
 Vibration    13          0.666              1.751              1.683
 Vibration    14          0.675              1.725              1.583
 Vibration    15          0.681              1.708              1.525
 Vibration    16          0.694              1.669              1.402
 Vibration    17          0.717              1.604              1.232
 Vibration    18          0.740              1.539              1.091
 Vibration    19          0.756              1.497              1.009
 Vibration    20          0.763              1.478              0.977
 Vibration    21          0.768              1.465              0.955
 Vibration    22          0.783              1.426              0.891
 Vibration    23          0.796              1.392              0.840
 Vibration    24          0.808              1.363              0.799
 Vibration    25          0.849              1.264              0.674
 Vibration    26          0.859              1.243              0.650
 Vibration    27          0.897              1.157              0.560
 Vibration    28          0.902              1.148              0.552
 Vibration    29          0.940              1.068              0.480
 Vibration    30          0.971              1.007              0.430

 1\1\GINC-TATANKA\Freq\RB3LYP\6-31G(d)\C6H16O8\AALRAWAS\16-Jan-2017\0\\
 #N Geom=AllCheck Guess=TCheck SCRF=Check GenChk RB3LYP/6-31G(d) Freq\\
 Title Card Required\\0,1\H,0.2253824603,0.5891966503,-0.5678008987\C,-
 0.3841629146,0.453477961,0.3319203669\C,-2.2727607854,2.0962282142,0.4
 891641448\C,-2.6831465039,-0.42261826,0.750748388\C,-3.0978015527,1.02
 53163433,1.1944714703\O,-1.4883001025,-0.3434756573,-0.1089299325\C,-0
 .8011879584,1.8728596121,0.7955689773\H,-2.9170777301,1.1185222917,2.2
 760476163\H,-0.6762207203,1.9563013693,1.8865963791\C,0.4768637527,-0.

 Normal termination of Gaussian 09 at Mon Jan 16 22:18:06 2017.
