 Gaussian 09, Revision E.01,
 Gaussian 09:  ES64L-G09RevE.01 30-Nov-2015

 -----------------------------------------
 # opt=(MaxCycle=1000) freq B3LYP/6-31G(d)
 -----------------------------------------

 -----------------------------------------------
 ./boats/4/glo_2w_alpha_ts_boat4_B3LYP_631Gd.out
 -----------------------------------------------
 Symbolic Z-matrix:
 Charge =  0 Multiplicity = 1

 SCF Done:  E(RB3LYP) =  -839.981779931     A.U. after   14 cycles
 SCF Done:  E(RB3LYP) =  -839.989330806     A.U. after   12 cycles
 SCF Done:  E(RB3LYP) =  -839.994521923     A.U. after   12 cycles
 SCF Done:  E(RB3LYP) =  -839.997244119     A.U. after   12 cycles
 SCF Done:  E(RB3LYP) =  -839.999050636     A.U. after   12 cycles
 SCF Done:  E(RB3LYP) =  -839.999301749     A.U. after   11 cycles
 SCF Done:  E(RB3LYP) =  -839.999225640     A.U. after   11 cycles
 SCF Done:  E(RB3LYP) =  -839.999433897     A.U. after   11 cycles
 SCF Done:  E(RB3LYP) =  -839.999461919     A.U. after    9 cycles
 SCF Done:  E(RB3LYP) =  -839.999474784     A.U. after   10 cycles
 SCF Done:  E(RB3LYP) =  -840.000384201     A.U. after   10 cycles
 SCF Done:  E(RB3LYP) =  -840.000381129     A.U. after   11 cycles
 SCF Done:  E(RB3LYP) =  -840.000474901     A.U. after   11 cycles
 SCF Done:  E(RB3LYP) =  -840.000506299     A.U. after   10 cycles
 SCF Done:  E(RB3LYP) =  -840.000518061     A.U. after   10 cycles
 SCF Done:  E(RB3LYP) =  -840.000526744     A.U. after    8 cycles
 SCF Done:  E(RB3LYP) =  -840.000529104     A.U. after    7 cycles
 SCF Done:  E(RB3LYP) =  -840.000529787     A.U. after    7 cycles
 SCF Done:  E(RB3LYP) =  -840.000530063     A.U. after    7 cycles
 Optimization completed.
    -- Stationary point found.
 Normal termination of Gaussian 09 at Sun Jan 15 13:55:41 2017.

 --------------------------------------------------------------------
 #N Geom=AllCheck Guess=TCheck SCRF=Check GenChk RB3LYP/6-31G(d) Freq
 --------------------------------------------------------------------

 Structure from the checkpoint file:  "/scratch/10462918.yak.local/Gau-14258.chk"
 -----------------------------------------------
 ./boats/4/glo_2w_alpha_ts_boat4_B3LYP_631Gd.out
 -----------------------------------------------
 Charge =  0 Multiplicity = 1

                         Standard orientation:
 ---------------------------------------------------------------------
 Center     Atomic      Atomic             Coordinates (Angstroms)
 Number     Number       Type             X           Y           Z
 ---------------------------------------------------------------------
      1          8           0       -0.635455    0.423323   -0.126506
      2          6           0        1.739401    0.037435   -0.445437
      3          6           0        0.228690   -1.837469    0.394209
      4          6           0        1.655631   -1.424368    0.011968
      5          6           0       -0.854382   -1.007644   -0.298347
      6          6           0        0.668814    0.890001    0.249199
      7          1           0        2.265763   -1.519731    0.920554
      8          1           0        0.797761    0.812293    1.339530
      9          1           0        1.520913    0.063244   -1.528040
     10          6           0        0.698820    2.360888   -0.186796
     11          1           0        0.585489    2.417969   -1.273239
     12          1           0       -0.144024    2.900985    0.266287
     13          1           0        0.085157   -2.885339    0.094031
     14          8           0        1.945061    2.999555    0.110587
     15          1           0        2.032643    3.053399    1.076056
     16          8           0        0.099418   -1.681743    1.802180
     17          1           0       -0.857579   -1.729791    1.975889
     18          8           0        2.114997   -2.306687   -1.006454
     19          1           0        3.016301   -2.022469   -1.229371
     20          8           0        3.061526    0.481123   -0.183952
     21          1           0        3.065883    1.450380   -0.301558
     22          1           0       -0.864928   -1.195808   -1.379681
     23          8           0       -2.065218   -1.339239    0.290100
     24          8           0       -3.995209   -0.109334   -1.141876
     25          1           0       -2.812473   -1.017350   -0.281383
     26          1           0       -3.813891    0.728213   -0.644444
     27          1           0       -4.906025   -0.352399   -0.918220
     28          8           0       -2.962885    1.818469    0.486012
     29          1           0       -2.098211    1.377397    0.313578
     30          1           0       -3.192493    1.522223    1.380507
 ---------------------------------------------------------------------

 SCF Done:  E(RB3LYP) =  -840.000530062     A.U. after    1 cycles

 The electronic state is 1-A.
 Alpha  occ. eigenvalues --  -19.17904 -19.17064 -19.15699 -19.15451 -19.14908
 Alpha  occ. eigenvalues --  -19.14425 -19.14387 -19.14137 -10.28975 -10.24945
 Alpha  occ. eigenvalues --  -10.24917 -10.23742 -10.23597 -10.23315  -1.07404
 Alpha  occ. eigenvalues --   -1.04864  -1.02774  -1.02029  -1.01824  -1.00944
 Alpha  occ. eigenvalues --   -1.00654  -0.99861  -0.77998  -0.76854  -0.69467
 Alpha  occ. eigenvalues --   -0.64833  -0.63224  -0.56171  -0.55136  -0.54565
 Alpha  occ. eigenvalues --   -0.54305  -0.53051  -0.52623  -0.50420  -0.49889
 Alpha  occ. eigenvalues --   -0.49472  -0.45908  -0.44553  -0.43461  -0.42612
 Alpha  occ. eigenvalues --   -0.41019  -0.40702  -0.39938  -0.38997  -0.37978
 Alpha  occ. eigenvalues --   -0.36877  -0.35932  -0.35244  -0.33749  -0.32978
 Alpha  occ. eigenvalues --   -0.31730  -0.30640  -0.30000  -0.29413  -0.28358
 Alpha  occ. eigenvalues --   -0.27270  -0.26152  -0.25637
 Alpha virt. eigenvalues --    0.04098   0.05031   0.07989   0.08525   0.10156
 Alpha virt. eigenvalues --    0.10497   0.11346   0.13210   0.13994   0.14822
 Alpha virt. eigenvalues --    0.15290   0.15770   0.16971   0.17336   0.18141

 Mulliken charges:
               1
     1  O   -0.565459
     2  C    0.096887
     3  C    0.084774
     4  C    0.133851
     5  C    0.342854
     6  C    0.104726
     7  H    0.158145
     8  H    0.140435
     9  H    0.123344
    10  C   -0.074377
    11  H    0.168201
    12  H    0.155526
    13  H    0.155014
    14  O   -0.619107
    15  H    0.404956
    16  O   -0.651415
    17  H    0.411789
    18  O   -0.643722
    19  H    0.404404
    20  O   -0.672926
    21  H    0.416359
    22  H    0.144527
    23  O   -0.685108
    24  O   -0.812823
    25  H    0.438044
    26  H    0.427053
    27  H    0.397088
    28  O   -0.816383
    29  H    0.440603
    30  H    0.392739
 Sum of Mulliken charges =  -0.00000

 Dipole moment (field-independent basis, Debye):
    X=             -2.0934    Y=              1.6800    Z=              1.6585  Tot=              3.1552
 Quadrupole moment (field-independent basis, Debye-Ang):
   XX=            -72.8465   YY=            -89.5952   ZZ=            -82.3481
   XY=              4.9698   XZ=             -5.6592   YZ=              6.0621

  Exact polarizability: 108.624   2.368  95.656  -0.763   3.329  81.261
 Approx polarizability: 138.291   4.577 123.164   0.315   4.691 123.043

                      1                      2                      3
                      A                      A                      A
 Frequencies --     27.2928                40.7526                44.5923
 Red. masses --      6.2981                 5.5547                 5.2670
 Frc consts  --      0.0028                 0.0054                 0.0062
 IR Inten    --      0.5556                 1.9157                 9.3612

                      4                      5                      6
                      A                      A                      A
 Frequencies --     64.5184                83.7451               110.3914
 Red. masses --      5.5505                 6.9078                 5.8519
 Frc consts  --      0.0136                 0.0285                 0.0420
 IR Inten    --      2.6090                 2.6696                 7.1191

                      7                      8                      9
                      A                      A                      A
 Frequencies --    158.5521               174.9022               192.9012
 Red. masses --      2.7355                 4.6531                 5.6842
 Frc consts  --      0.0405                 0.0839                 0.1246
 IR Inten    --      9.6990                 7.2921                 9.9244

                     10                     11                     12
                      A                      A                      A
 Frequencies --    221.6759               233.2356               257.8479
 Red. masses --      4.2836                 5.6000                 2.2715
 Frc consts  --      0.1240                 0.1795                 0.0890
 IR Inten    --      1.2147                 0.0915                23.7930

                     13                     14                     15
                      A                      A                      A
 Frequencies --    269.7897               280.6548               311.7527
 Red. masses --      3.8344                 1.6722                 2.6386
 Frc consts  --      0.1644                 0.0776                 0.1511
 IR Inten    --     15.7434                79.5848                29.0438

                     16                     17                     18
                      A                      A                      A
 Frequencies --    320.8389               333.2395               336.2789
 Red. masses --      1.5027                 1.4661                 1.7680
 Frc consts  --      0.0911                 0.0959                 0.1178
 IR Inten    --      9.9202               122.3257                17.6103

                     19                     20                     21
                      A                      A                      A
 Frequencies --    368.1968               371.2149               396.1753
 Red. masses --      2.0067                 2.6341                 1.6465
 Frc consts  --      0.1603                 0.2139                 0.1523
 IR Inten    --     63.1454                58.5728               129.2475

                     22                     23                     24
                      A                      A                      A
 Frequencies --    399.4396               422.8886               474.0872
 Red. masses --      2.0795                 3.9857                 2.9572
 Frc consts  --      0.1955                 0.4200                 0.3916
 IR Inten    --     23.3103                22.8353                44.8402

                     25                     26                     27
                      A                      A                      A
 Frequencies --    495.6470               513.7819               540.0310
 Red. masses --      3.8852                 1.4859                 2.0211
 Frc consts  --      0.5624                 0.2311                 0.3473
 IR Inten    --     38.3225               115.2103                66.0153

                     28                     29                     30
                      A                      A                      A
 Frequencies --    546.1341               604.5772               643.9510
 Red. masses --      1.4357                 3.3344                 1.2643
 Frc consts  --      0.2523                 0.7181                 0.3089
 IR Inten    --    136.3522                73.7947                51.6254

                     31                     32                     33
                      A                      A                      A
 Frequencies --    690.4869               724.5217               794.6856
 Red. masses --      3.3908                 1.1752                 2.7458
 Frc consts  --      0.9525                 0.3635                 1.0217
 IR Inten    --     16.6447               144.4718                30.3457

                     34                     35                     36
                      A                      A                      A
 Frequencies --    826.9183               856.5319               904.7633
 Red. masses --      1.6618                 2.4466                 1.9311
 Frc consts  --      0.6695                 1.0575                 0.9314
 IR Inten    --     74.4923               127.3499                12.5837

                     37                     38                     39
                      A                      A                      A
 Frequencies --    965.2758              1016.1777              1032.0724
 Red. masses --      3.0279                 3.3585                 1.1992
 Frc consts  --      1.6622                 2.0433                 0.7526
 IR Inten    --     31.7317                91.8978                86.7701

                     40                     41                     42
                      A                      A                      A
 Frequencies --   1043.0091              1065.5445              1075.6208
 Red. masses --      2.4992                 3.3802                 3.6611
 Frc consts  --      1.6018                 2.2612                 2.4956
 IR Inten    --     79.1286               151.4662                 9.2287

                     43                     44                     45
                      A                      A                      A
 Frequencies --   1087.5115              1109.9194              1110.7043
 Red. masses --      4.3716                 1.9888                 4.2822
 Frc consts  --      3.0462                 1.4435                 3.1126
 IR Inten    --    155.2852                 9.8446               104.3392

                     46                     47                     48
                      A                      A                      A
 Frequencies --   1130.8918              1154.3736              1174.0058
 Red. masses --      3.8908                 2.9167                 3.1223
 Frc consts  --      2.9318                 2.2900                 2.5355
 IR Inten    --     40.0758                11.2963                53.3390

                     49                     50                     51
                      A                      A                      A
 Frequencies --   1208.0851              1259.3940              1269.3180
 Red. masses --      1.4190                 1.1494                 1.1730
 Frc consts  --      1.2201                 1.0741                 1.1135
 IR Inten    --     19.7729                29.1234                65.3190

                     52                     53                     54
                      A                      A                      A
 Frequencies --   1289.3315              1321.3661              1333.7953
 Red. masses --      1.2147                 1.1394                 1.2260
 Frc consts  --      1.1898                 1.1721                 1.2850
 IR Inten    --     26.5317                18.0656                54.0691

                     55                     56                     57
                      A                      A                      A
 Frequencies --   1362.4764              1374.7321              1381.5269
 Red. masses --      1.2322                 1.2942                 1.2112
 Frc consts  --      1.3477                 1.4411                 1.3620
 IR Inten    --     10.2493                52.9011                23.0164

                     58                     59                     60
                      A                      A                      A
 Frequencies --   1392.1986              1403.0908              1422.8161
 Red. masses --      1.2439                 1.2318                 1.3249
 Frc consts  --      1.4205                 1.4288                 1.5802
 IR Inten    --     50.7650                 8.2590                47.6434

                     61                     62                     63
                      A                      A                      A
 Frequencies --   1428.6366              1446.3142              1463.0363
 Red. masses --      1.3570                 1.4078                 1.6626
 Frc consts  --      1.6318                 1.7350                 2.0967
 IR Inten    --     32.2406                30.2236                 7.9731

                     64                     65                     66
                      A                      A                      A
 Frequencies --   1489.3252              1536.0784              1537.2345
 Red. masses --      1.5991                 1.3516                 1.0917
 Frc consts  --      2.0898                 1.8790                 1.5200
 IR Inten    --     28.0810                23.8207                 2.3092

                     67                     68                     69
                      A                      A                      A
 Frequencies --   1722.2559              1752.3728              2967.2199
 Red. masses --      1.0781                 1.0691                 1.0820
 Frc consts  --      1.8840                 1.9344                 5.6126
 IR Inten    --     85.1666                43.1772                26.6426

                     70                     71                     72
                      A                      A                      A
 Frequencies --   3022.5250              3035.7123              3043.1742
 Red. masses --      1.0843                 1.0846                 1.0683
 Frc consts  --      5.8364                 5.8892                 5.8290
 IR Inten    --     30.7560                23.1951                40.1410

                     73                     74                     75
                      A                      A                      A
 Frequencies --   3044.4494              3056.4052              3123.7892
 Red. masses --      1.0839                 1.0866                 1.0998
 Frc consts  --      5.9189                 5.9804                 6.3232
 IR Inten    --     22.8669                60.7886                22.4860

                     76                     77                     78
                      A                      A                      A
 Frequencies --   3284.7438              3412.1442              3499.6199
 Red. masses --      1.0690                 1.0619                 1.0588
 Frc consts  --      6.7954                 7.2840                 7.6404
 IR Inten    --    572.0372               995.2312               671.6176

                     79                     80                     81
                      A                      A                      A
 Frequencies --   3635.1255              3697.9491              3734.7051
 Red. masses --      1.0658                 1.0647                 1.0662
 Frc consts  --      8.2979                 8.5786                 8.7616
 IR Inten    --    169.0188                43.6187                23.7723

                     82                     83                     84
                      A                      A                      A
 Frequencies --   3737.2570              3786.9371              3799.0603
 Red. masses --      1.0660                 1.0682                 1.0681
 Frc consts  --      8.7721                 9.0256                 9.0824
 IR Inten    --     26.2815                57.8637                48.6542

 - Thermochemistry -
 -------------------
 Temperature   298.150 Kelvin.  Pressure   1.00000 Atm.
 Atom     1 has atomic number  8 and mass  15.99491

 Molecular mass:   216.08452 amu.
 Principal axes and moments of inertia in atomic units:
                           1         2         3
     Eigenvalues --  2457.354083774.464545372.53245
           X            1.00000  -0.00242  -0.00025
           Y            0.00243   0.99997   0.00721
           Z            0.00023  -0.00721   0.99997
 This molecule is an asymmetric top.
 Rotational symmetry number  1.
 Warning -- assumption of classical behavior for rotation
           may cause significant error
 Rotational temperatures (Kelvin)      0.03525     0.02295     0.01612
 Rotational constants (GHZ):           0.73442     0.47814     0.33592
 Zero-point vibrational energy     653617.4 (Joules/Mol)
                                  156.21832 (Kcal/Mol)
 Warning -- explicit consideration of  29 degrees of freedom as
           vibrations may cause significant error
 Vibrational temperatures:     39.27    58.63    64.16    92.83   120.49
          (Kelvin)            158.83   228.12   251.64   277.54   318.94
                              335.57   370.99   388.17   403.80   448.54
                              461.62   479.46   483.83   529.75   534.09
                              570.01   574.70   608.44   682.10   713.12
                              739.22   776.98   785.76   869.85   926.50
                              993.46  1042.42  1143.37  1189.75  1232.36
                             1301.75  1388.81  1462.05  1484.92  1500.66
                             1533.08  1547.58  1564.68  1596.92  1598.05
                             1627.10  1660.88  1689.13  1738.16  1811.98
                             1826.26  1855.06  1901.15  1919.03  1960.30
                             1977.93  1987.71  2003.06  2018.73  2047.11
                             2055.49  2080.92  2104.98  2142.80  2210.07
                             2211.73  2477.94  2521.27  4269.16  4348.73
                             4367.71  4378.44  4380.28  4397.48  4494.43
                             4726.01  4909.31  5035.17  5230.13  5320.52
                             5373.40  5377.07  5448.55  5465.99

 Zero-point correction=                           0.248950 (Hartree/Particle)
 Thermal correction to Energy=                    0.266363
 Thermal correction to Enthalpy=                  0.267307
 Thermal correction to Gibbs Free Energy=         0.203502
 Sum of electronic and zero-point Energies=           -839.751580
 Sum of electronic and thermal Energies=              -839.734167
 Sum of electronic and thermal Enthalpies=            -839.733223
 Sum of electronic and thermal Free Energies=         -839.797029

                     E (Thermal)             CV                S
                      KCal/Mol        Cal/Mol-Kelvin    Cal/Mol-Kelvin
 Total                  167.145             63.902            134.291
 Electronic               0.000              0.000              0.000
 Translational            0.889              2.981             42.015
 Rotational               0.889              2.981             32.277
 Vibrational            165.368             57.941             59.999
 Vibration     1          0.593              1.984              6.017
 Vibration     2          0.594              1.981              5.222
 Vibration     3          0.595              1.980              5.044
 Vibration     4          0.597              1.971              4.314
 Vibration     5          0.601              1.960              3.801
 Vibration     6          0.606              1.941              3.262
 Vibration     7          0.621              1.893              2.567
 Vibration     8          0.627              1.873              2.382
 Vibration     9          0.635              1.850              2.200
 Vibration    10          0.648              1.808              1.945
 Vibration    11          0.654              1.790              1.854
 Vibration    12          0.667              1.750              1.676
 Vibration    13          0.674              1.729              1.598
 Vibration    14          0.680              1.709              1.530
 Vibration    15          0.700              1.651              1.353
 Vibration    16          0.706              1.634              1.306
 Vibration    17          0.715              1.609              1.244
 Vibration    18          0.717              1.603              1.230
 Vibration    19          0.741              1.538              1.087
 Vibration    20          0.743              1.531              1.075
 Vibration    21          0.763              1.478              0.977
 Vibration    22          0.765              1.471              0.965
 Vibration    23          0.785              1.420              0.882
 Vibration    24          0.831              1.308              0.726
 Vibration    25          0.851              1.260              0.669
 Vibration    26          0.869              1.219              0.625
 Vibration    27          0.895              1.162              0.565
 Vibration    28          0.901              1.148              0.552
 Vibration    29          0.963              1.022              0.442

 Normal termination of Gaussian 09 at Sun Jan 15 14:13:15 2017.
