 Gaussian 09, Revision E.01,
 Gaussian 09:  ES64L-G09RevE.01 30-Nov-2015

 -----------------------------------------
 # opt=(MaxCycle=1000) freq B3LYP/6-31G(d)
 -----------------------------------------

 ------------------------------------------------
 ./boats/4/glo_1w_beta_ts_boat4_B3LYP_631Gd_r.out
 ------------------------------------------------
 Symbolic Z-matrix:
 Charge =  0 Multiplicity = 1

 SCF Done:  E(RB3LYP) =  -839.963095506     A.U. after   14 cycles
 SCF Done:  E(RB3LYP) =  -839.968595164     A.U. after   14 cycles
 SCF Done:  E(RB3LYP) =  -839.975045165     A.U. after   14 cycles
 SCF Done:  E(RB3LYP) =  -839.977316670     A.U. after   13 cycles
 SCF Done:  E(RB3LYP) =  -839.981116228     A.U. after   13 cycles
 SCF Done:  E(RB3LYP) =  -839.982354368     A.U. after   12 cycles
 SCF Done:  E(RB3LYP) =  -839.982927524     A.U. after   12 cycles
 SCF Done:  E(RB3LYP) =  -839.982502260     A.U. after   12 cycles
 SCF Done:  E(RB3LYP) =  -839.983344701     A.U. after   12 cycles
 SCF Done:  E(RB3LYP) =  -839.983462071     A.U. after   10 cycles
 SCF Done:  E(RB3LYP) =  -839.993639615     A.U. after    8 cycles
 SCF Done:  E(RB3LYP) =  -839.993642450     A.U. after    8 cycles
 SCF Done:  E(RB3LYP) =  -839.993644130     A.U. after    8 cycles
 SCF Done:  E(RB3LYP) =  -839.993645289     A.U. after    8 cycles
 SCF Done:  E(RB3LYP) =  -839.993645508     A.U. after    7 cycles
 SCF Done:  E(RB3LYP) =  -839.993645715     A.U. after    7 cycles
 SCF Done:  E(RB3LYP) =  -839.993645965     A.U. after    7 cycles
 SCF Done:  E(RB3LYP) =  -839.993646442     A.U. after    7 cycles
 SCF Done:  E(RB3LYP) =  -839.993646833     A.U. after    7 cycles
 Optimization completed.
    -- Stationary point found.
 Normal termination of Gaussian 09 at Sun Jan 15 13:32:22 2017.

 --------------------------------------------------------------------
 #N Geom=AllCheck Guess=TCheck SCRF=Check GenChk RB3LYP/6-31G(d) Freq
 --------------------------------------------------------------------

 Structure from the checkpoint file:  "/scratch/10462922.yak.local/Gau-31198.chk"
 ------------------------------------------------
 ./boats/4/glo_1w_beta_ts_boat4_B3LYP_631Gd_r.out
 ------------------------------------------------
 Charge =  0 Multiplicity = 1

                         Standard orientation:
 ---------------------------------------------------------------------
 Center     Atomic      Atomic             Coordinates (Angstroms)
 Number     Number       Type             X           Y           Z
 ---------------------------------------------------------------------
      1          8           0       -1.435741    1.242411    0.838695
      2          6           0        0.608437    0.195703   -0.109565
      3          6           0       -0.920967   -1.773799    0.854228
      4          6           0        0.465037   -1.254489    0.425358
      5          6           0       -2.012453   -1.764052   -0.206891
      6          6           0       -0.017002    1.329276    0.739145
      7          1           0        1.089777   -1.301151    1.333909
      8          1           0        0.365573    1.243931    1.765041
      9          1           0        0.179892    0.222774   -1.120227
     10          1           0       -2.946894   -2.256493    0.136961
     11          6           0        0.296663    2.741910    0.200514
     12          1           0       -0.076770    2.830909   -0.825221
     13          1           0       -0.243159    3.471046    0.816837
     14          1           0       -0.752610   -2.828507    1.107326
     15          8           0       -1.964735   -1.224204   -1.296317
     16          8           0        1.691569    3.069569    0.121046
     17          1           0        2.029351    3.164073    1.026489
     18          8           0       -1.470910   -1.174336    2.014914
     19          1           0       -1.675108   -0.245052    1.767543
     20          8           0        0.895153   -2.183569   -0.548909
     21          1           0        1.875315   -2.151237   -0.633640
     22          8           0        2.032227    0.419470   -0.167933
     23          1           0        2.181877    1.373835   -0.328028
     24          8           0       -2.554506    1.426055   -1.685290
     25          1           0       -1.834605    1.375519   -0.058679
     26          1           0       -2.570667    0.458555   -1.826890
     27          1           0       -2.041662    1.773813   -2.430315
     28          8           0        3.631823   -1.730589   -0.731359
     29          1           0        4.033150   -1.915505    0.131344
     30          1           0        3.269205   -0.822267   -0.637968
 ---------------------------------------------------------------------

 SCF Done:  E(RB3LYP) =  -839.993646833     A.U. after    1 cycles

 The electronic state is 1-A.
 Alpha  occ. eigenvalues --  -19.19138 -19.17207 -19.16857 -19.16417 -19.15847
 Alpha  occ. eigenvalues --  -19.14266 -19.14092 -19.11976 -10.28883 -10.25857
 Alpha  occ. eigenvalues --  -10.25643 -10.24360 -10.24123 -10.23642  -1.06513
 Alpha  occ. eigenvalues --   -1.06213  -1.04058  -1.03066  -1.02555  -1.01460
 Alpha  occ. eigenvalues --   -1.00195  -0.99173  -0.77610  -0.74619  -0.70699
 Alpha  occ. eigenvalues --   -0.65011  -0.62103  -0.57581  -0.55627  -0.54878
 Alpha  occ. eigenvalues --   -0.53688  -0.52875  -0.51968  -0.50365  -0.49378
 Alpha  occ. eigenvalues --   -0.46763  -0.46380  -0.45879  -0.44150  -0.42767
 Alpha  occ. eigenvalues --   -0.42289  -0.41287  -0.40255  -0.39750  -0.39146
 Alpha  occ. eigenvalues --   -0.37769  -0.36743  -0.35324  -0.34043  -0.33223
 Alpha  occ. eigenvalues --   -0.32119  -0.31924  -0.30066  -0.29673  -0.28777
 Alpha  occ. eigenvalues --   -0.27123  -0.25233  -0.25021
 Alpha virt. eigenvalues --   -0.04217   0.03231   0.04398   0.07078   0.08277
 Alpha virt. eigenvalues --    0.11675   0.12217   0.13201   0.13984   0.14734
 Alpha virt. eigenvalues --    0.15094   0.16015   0.16747   0.17972   0.18594

 Mulliken charges:
               1
     1  O   -0.689733
     2  C    0.123859
     3  C    0.061673
     4  C    0.110900
     5  C    0.247868
     6  C    0.070104
     7  H    0.117664
     8  H    0.140280
     9  H    0.132502
    10  H    0.131798
    11  C   -0.081948
    12  H    0.150518
    13  H    0.165666
    14  H    0.168912
    15  O   -0.420504
    16  O   -0.618555
    17  H    0.408349
    18  O   -0.657541
    19  H    0.439781
    20  O   -0.673004
    21  H    0.426711
    22  O   -0.703115
    23  H    0.429636
    24  O   -0.802552
    25  H    0.451795
    26  H    0.441896
    27  H    0.405474
    28  O   -0.799447
    29  H    0.391133
    30  H    0.429877
 Sum of Mulliken charges =  -0.00000

 Dipole moment (field-independent basis, Debye):
    X=              1.1258    Y=              3.5015    Z=              1.1397  Tot=              3.8506
 Quadrupole moment (field-independent basis, Debye-Ang):
   XX=            -84.9719   YY=            -81.8039   ZZ=            -84.4466
   XY=              6.0462   XZ=             13.1052   YZ=             -2.8152

  Exact polarizability: 100.178   2.262 100.420   2.316  -3.380  87.591
 Approx polarizability: 130.246   0.860 128.475   1.783  -5.965 140.408

                      1                      2                      3
                      A                      A                      A
 Frequencies --     25.8534                41.2869                56.7532
 Red. masses --      5.9670                 6.1685                 3.5900
 Frc consts  --      0.0023                 0.0062                 0.0068
 IR Inten    --      1.7685                 4.1654                 4.4869

                      4                      5                      6
                      A                      A                      A
 Frequencies --     72.6622                86.5870                97.5488
 Red. masses --      5.8899                 5.9025                 6.5549
 Frc consts  --      0.0183                 0.0261                 0.0368
 IR Inten    --      0.8906                 8.6295                 4.8522

                      7                      8                      9
                      A                      A                      A
 Frequencies --    134.2512               150.9537               171.7014
 Red. masses --      7.3909                 2.5669                 5.3768
 Frc consts  --      0.0785                 0.0345                 0.0934
 IR Inten    --      5.1881                 7.7968                11.0443

                     10                     11                     12
                      A                      A                      A
 Frequencies --    197.1911               201.2395               215.6506
 Red. masses --      4.9035                 3.4325                 3.0332
 Frc consts  --      0.1123                 0.0819                 0.0831
 IR Inten    --     23.6088                20.7439                18.2777

                     13                     14                     15
                      A                      A                      A
 Frequencies --    240.0089               254.2271               258.7786
 Red. masses --      1.8561                 4.5054                 5.4802
 Frc consts  --      0.0630                 0.1716                 0.2162
 IR Inten    --     41.1637                14.8367                 4.1863

                     16                     17                     18
                      A                      A                      A
 Frequencies --    264.6860               289.5041               322.2937
 Red. masses --      1.2078                 4.7284                 1.1686
 Frc consts  --      0.0499                 0.2335                 0.0715
 IR Inten    --     35.0726                 7.4316               126.4273

                     19                     20                     21
                      A                      A                      A
 Frequencies --    326.1743               355.4952               370.8243
 Red. masses --      2.7020                 1.5897                 3.1890
 Frc consts  --      0.1694                 0.1184                 0.2584
 IR Inten    --     10.2712                90.5371                32.0309

                     22                     23                     24
                      A                      A                      A
 Frequencies --    383.5424               386.8683               430.2212
 Red. masses --      2.4154                 1.3209                 5.1799
 Frc consts  --      0.2093                 0.1165                 0.5649
 IR Inten    --     54.9215               108.5318                14.0696

                     25                     26                     27
                      A                      A                      A
 Frequencies --    458.2480               479.1813               509.0775
 Red. masses --      4.4611                 5.2254                 2.9614
 Frc consts  --      0.5519                 0.7069                 0.4522
 IR Inten    --     46.5140                10.7689                 7.1357

                     28                     29                     30
                      A                      A                      A
 Frequencies --    540.3246               577.2702               587.2612
 Red. masses --      4.4089                 1.1879                 3.8701
 Frc consts  --      0.7584                 0.2332                 0.7864
 IR Inten    --      0.8870               175.6009                62.6838

                     31                     32                     33
                      A                      A                      A
 Frequencies --    676.6889               710.9545               726.8076
 Red. masses --      1.1020                 1.1023                 3.2481
 Frc consts  --      0.2973                 0.3283                 1.0109
 IR Inten    --    120.2580               244.7106                 7.3429

                     34                     35                     36
                      A                      A                      A
 Frequencies --    815.1432               855.2003               893.5761
 Red. masses --      1.0588                 2.0974                 1.8230
 Frc consts  --      0.4145                 0.9038                 0.8576
 IR Inten    --    146.3142                41.3968                 9.3843

                     37                     38                     39
                      A                      A                      A
 Frequencies --    898.5445               907.6746               965.5218
 Red. masses --      1.2878                 1.1420                 2.0680
 Frc consts  --      0.6126                 0.5543                 1.1359
 IR Inten    --    180.9410                95.1815                46.4790

                     40                     41                     42
                      A                      A                      A
 Frequencies --   1018.0870              1040.8870              1060.7390
 Red. masses --      2.4108                 5.5941                 2.8657
 Frc consts  --      1.4723                 3.5710                 1.8998
 IR Inten    --     24.7203                30.0385                46.8617

                     43                     44                     45
                      A                      A                      A
 Frequencies --   1074.8841              1090.4022              1104.8968
 Red. masses --      4.8666                 5.2485                 3.4258
 Frc consts  --      3.3128                 3.6767                 2.4641
 IR Inten    --    167.8789                46.0236                10.9503

                     46                     47                     48
                      A                      A                      A
 Frequencies --   1109.3476              1129.6039              1163.8724
 Red. masses --      3.1989                 2.9333                 1.9074
 Frc consts  --      2.3195                 2.2052                 1.5223
 IR Inten    --     41.3726                27.1866                12.3388

                     49                     50                     51
                      A                      A                      A
 Frequencies --   1203.5419              1276.9481              1280.7011
 Red. masses --      1.5452                 1.2410                 1.1466
 Frc consts  --      1.3188                 1.1923                 1.1080
 IR Inten    --     17.8704                33.5913                17.3518

                     52                     53                     54
                      A                      A                      A
 Frequencies --   1293.5260              1317.3363              1344.7712
 Red. masses --      1.2502                 1.2108                 1.1969
 Frc consts  --      1.2325                 1.2380                 1.2752
 IR Inten    --     16.8617                15.3223                 4.7106

                     55                     56                     57
                      A                      A                      A
 Frequencies --   1377.8680              1389.4155              1402.1296
 Red. masses --      1.4046                 1.3048                 1.2818
 Frc consts  --      1.5711                 1.4841                 1.4847
 IR Inten    --     28.0048                 7.0495                28.4240

                     58                     59                     60
                      A                      A                      A
 Frequencies --   1421.7586              1429.9436              1434.3568
 Red. masses --      1.2798                 1.1909                 1.2837
 Frc consts  --      1.5242                 1.4347                 1.5560
 IR Inten    --     22.5468                 8.5522                 9.0184

                     61                     62                     63
                      A                      A                      A
 Frequencies --   1468.0878              1490.0376              1497.6995
 Red. masses --      1.2813                 1.1860                 1.2107
 Frc consts  --      1.6270                 1.5514                 1.6001
 IR Inten    --     34.5194                53.7329                93.6751

                     64                     65                     66
                      A                      A                      A
 Frequencies --   1506.0091              1530.2630              1718.6783
 Red. masses --      1.2555                 1.0964                 1.0844
 Frc consts  --      1.6777                 1.5127                 1.8872
 IR Inten    --     61.5347                 5.4929                51.6700

                     67                     68                     69
                      A                      A                      A
 Frequencies --   1721.6556              1809.3216              2944.0700
 Red. masses --      1.0763                 9.2082                 1.0852
 Frc consts  --      1.8796                17.7606                 5.5418
 IR Inten    --     81.5092               148.9919               123.8295

                     70                     71                     72
                      A                      A                      A
 Frequencies --   2980.1701              3045.1835              3058.2369
 Red. masses --      1.0827                 1.0835                 1.0689
 Frc consts  --      5.6657                 5.9196                 5.8902
 IR Inten    --     34.1412                 1.8535                28.1825

                     73                     74                     75
                      A                      A                      A
 Frequencies --   3060.4631              3061.5110              3115.4154
 Red. masses --      1.0831                 1.0775                 1.1070
 Frc consts  --      5.9769                 5.9505                 6.3303
 IR Inten    --     20.4014                67.5519                34.5727

                     76                     77                     78
                      A                      A                      A
 Frequencies --   3375.4078              3465.0796              3515.1207
 Red. masses --      1.0691                 1.0670                 1.0663
 Frc consts  --      7.1767                 7.5480                 7.7628
 IR Inten    --    572.8774               273.3908               304.5555

                     79                     80                     81
                      A                      A                      A
 Frequencies --   3556.7929              3578.6436              3635.9629
 Red. masses --      1.0632                 1.0613                 1.0536
 Frc consts  --      7.9248                 8.0081                 8.2064
 IR Inten    --    827.7002               256.9925               253.5297

                     82                     83                     84
                      A                      A                      A
 Frequencies --   3736.7599              3796.1366              3810.1634
 Red. masses --      1.0662                 1.0703                 1.0736
 Frc consts  --      8.7716                 9.0876                 9.1829
 IR Inten    --     27.1602                65.4972                89.8928

 - Thermochemistry -
 -------------------
 Temperature   298.150 Kelvin.  Pressure   1.00000 Atm.
 Atom     1 has atomic number  8 and mass  15.99491

 Molecular mass:   216.08452 amu.
 Principal axes and moments of inertia in atomic units:
                           1         2         3
     Eigenvalues --  3048.813693244.426564833.70263
           X            0.99569  -0.09195   0.01192
           Y            0.09206   0.99571  -0.00894
           Z           -0.01105   0.01000   0.99989
 This molecule is an asymmetric top.
 Rotational symmetry number  1.
 Warning -- assumption of classical behavior for rotation
           may cause significant error
 Rotational temperatures (Kelvin)      0.02841     0.02670     0.01792
 Rotational constants (GHZ):           0.59195     0.55626     0.37337
 Zero-point vibrational energy     648242.4 (Joules/Mol)
                                  154.93365 (Kcal/Mol)
 Warning -- explicit consideration of  30 degrees of freedom as
           vibrations may cause significant error
 Vibrational temperatures:     37.20    59.40    81.66   104.54   124.58
          (Kelvin)            140.35   193.16   217.19   247.04   283.71
                              289.54   310.27   345.32   365.78   372.32
                              380.82   416.53   463.71   469.29   511.48
                              533.53   551.83   556.62   618.99   659.32
                              689.43   732.45   777.41   830.56   844.94
                              973.60  1022.90  1045.71  1172.81  1230.44
                             1285.66  1292.80  1305.94  1389.17  1464.80
                             1497.60  1526.16  1546.52  1568.84  1589.70
                             1596.10  1625.25  1674.55  1731.63  1837.24
                             1842.64  1861.09  1895.35  1934.82  1982.44
                             1999.06  2017.35  2045.59  2057.37  2063.72
                             2112.25  2143.83  2154.85  2166.81  2201.70
                             2472.79  2477.08  2603.21  4235.85  4287.79
                             4381.33  4400.12  4403.32  4404.83  4482.38
                             4856.45  4985.47  5057.47  5117.43  5148.86
                             5231.33  5376.36  5461.79  5481.97

 Zero-point correction=                           0.246902 (Hartree/Particle)
 Thermal correction to Energy=                    0.265233
 Thermal correction to Enthalpy=                  0.266177
 Thermal correction to Gibbs Free Energy=         0.200582
 Sum of electronic and zero-point Energies=           -839.746744
 Sum of electronic and thermal Energies=              -839.728414
 Sum of electronic and thermal Enthalpies=            -839.727470
 Sum of electronic and thermal Free Energies=         -839.793065

                     E (Thermal)             CV                S
                      KCal/Mol        Cal/Mol-Kelvin    Cal/Mol-Kelvin
 Total                  166.436             65.843            138.056
 Electronic               0.000              0.000              0.000
 Translational            0.889              2.981             42.015
 Rotational               0.889              2.981             32.236
 Vibrational            164.659             59.882             63.805
 Vibration     1          0.593              1.985              6.125
 Vibration     2          0.594              1.981              5.196
 Vibration     3          0.596              1.975              4.567
 Vibration     4          0.599              1.967              4.080
 Vibration     5          0.601              1.959              3.736
 Vibration     6          0.603              1.951              3.503
 Vibration     7          0.613              1.919              2.884
 Vibration     8          0.618              1.902              2.660
 Vibration     9          0.626              1.877              2.417
 Vibration    10          0.637              1.844              2.159
 Vibration    11          0.638              1.838              2.122
 Vibration    12          0.645              1.817              1.995
 Vibration    13          0.657              1.779              1.803
 Vibration    14          0.665              1.756              1.701
 Vibration    15          0.668              1.748              1.670
 Vibration    16          0.671              1.738              1.631
 Vibration    17          0.686              1.693              1.477
 Vibration    18          0.707              1.631              1.298
 Vibration    19          0.710              1.623              1.279
 Vibration    20          0.731              1.564              1.142
 Vibration    21          0.743              1.532              1.076
 Vibration    22          0.753              1.505              1.025
 Vibration    23          0.755              1.498              1.012
 Vibration    24          0.791              1.404              0.858
 Vibration    25          0.816              1.343              0.771
 Vibration    26          0.836              1.296              0.712
 Vibration    27          0.864              1.230              0.636
 Vibration    28          0.895              1.161              0.565
 Vibration    29          0.934              1.080              0.490
 Vibration    30          0.944              1.059              0.472

 Optimization completed.
    -- Stationary point found.
 Normal termination of Gaussian 09 at Sun Jan 15 13:51:01 2017.
