 Gaussian 09, Revision E.01,
 Gaussian 09:  ES64L-G09RevE.01 30-Nov-2015

 -----------------------------------------
 # opt=(MaxCycle=1000) freq B3LYP/6-31G(d)
 -----------------------------------------

 -------------------------------------------------
 ./boats/4/glo_1w_alpha_ts_boat4_B3LYP_631Gd_r.out
 -------------------------------------------------
 Symbolic Z-matrix:
 Charge =  0 Multiplicity = 1

 SCF Done:  E(RB3LYP) =  -839.970712610     A.U. after   14 cycles
 SCF Done:  E(RB3LYP) =  -839.977551138     A.U. after   13 cycles
 SCF Done:  E(RB3LYP) =  -839.983018605     A.U. after   13 cycles
 SCF Done:  E(RB3LYP) =  -839.986264335     A.U. after   13 cycles
 SCF Done:  E(RB3LYP) =  -839.988076979     A.U. after   12 cycles
 SCF Done:  E(RB3LYP) =  -839.989592221     A.U. after   12 cycles
 SCF Done:  E(RB3LYP) =  -839.990018808     A.U. after   12 cycles
 SCF Done:  E(RB3LYP) =  -839.989898216     A.U. after   12 cycles
 SCF Done:  E(RB3LYP) =  -839.990320476     A.U. after    9 cycles
 SCF Done:  E(RB3LYP) =  -839.990527652     A.U. after   11 cycles
 SCF Done:  E(RB3LYP) =  -839.992045918     A.U. after    9 cycles
 SCF Done:  E(RB3LYP) =  -839.992058953     A.U. after   10 cycles
 SCF Done:  E(RB3LYP) =  -839.992065816     A.U. after    8 cycles
 SCF Done:  E(RB3LYP) =  -839.992075493     A.U. after    8 cycles
 SCF Done:  E(RB3LYP) =  -839.992079410     A.U. after    8 cycles
 SCF Done:  E(RB3LYP) =  -839.992081043     A.U. after    8 cycles
 SCF Done:  E(RB3LYP) =  -839.992082025     A.U. after    8 cycles
 SCF Done:  E(RB3LYP) =  -839.992082376     A.U. after    8 cycles
 SCF Done:  E(RB3LYP) =  -839.992082605     A.U. after    7 cycles
 Optimization completed.
    -- Stationary point found.
 Normal termination of Gaussian 09 at Sun Jan 15 13:53:05 2017.

 --------------------------------------------------------------------
 #N Geom=AllCheck Guess=TCheck SCRF=Check GenChk RB3LYP/6-31G(d) Freq
 --------------------------------------------------------------------

 Structure from the checkpoint file:  "/scratch/10462920.yak.local/Gau-5412.chk"
 -------------------------------------------------
 ./boats/4/glo_1w_alpha_ts_boat4_B3LYP_631Gd_r.out
 -------------------------------------------------
 Charge =  0 Multiplicity = 1

                         Standard orientation:
 ---------------------------------------------------------------------
 Center     Atomic      Atomic             Coordinates (Angstroms)
 Number     Number       Type             X           Y           Z
 ---------------------------------------------------------------------
      1          8           0       -1.026675    1.116952   -0.951470
      2          6           0        0.995183    0.123354   -0.220138
      3          6           0       -1.015398   -1.552685    0.390969
      4          6           0        0.490736   -1.225046    0.360382
      5          6           0       -1.818708   -1.370560   -0.885010
      6          6           0        0.065399    1.337510   -0.074906
      7          1           0        0.807970   -1.231034    1.415695
      8          1           0       -0.266325    1.425139    0.971924
      9          1           0        1.150262   -0.025624   -1.299486
     10          6           0        0.726213    2.658614   -0.515354
     11          1           0        1.062709    2.560912   -1.551392
     12          1           0       -0.023174    3.459602   -0.480698
     13          1           0       -1.010219   -2.645001    0.552787
     14          8           0        1.894982    3.020986    0.240957
     15          1           0        1.612526    3.248525    1.141634
     16          8           0       -1.671692   -0.919997    1.491511
     17          1           0       -2.582802   -1.262418    1.464960
     18          8           0        1.043835   -2.312088   -0.360438
     19          1           0        2.029978   -2.253330   -0.334256
     20          8           0        2.257467    0.360235    0.432434
     21          1           0        2.476022    1.311784    0.331199
     22          1           0       -1.293317   -1.565770   -1.835222
     23          8           0       -3.019553   -1.158868   -0.840593
     24          8           0       -3.222148    1.392977    0.603508
     25          1           0       -3.716675    0.757648    0.054970
     26          1           0       -1.854637    1.419859   -0.504524
     27          1           0       -2.694542    0.796012    1.169786
     28          8           0        3.758581   -1.838694   -0.141741
     29          1           0        4.054724   -2.195397    0.709504
     30          1           0        3.468587   -0.920066    0.064113
 ---------------------------------------------------------------------

 SCF Done:  E(RB3LYP) =  -839.992082605     A.U. after    1 cycles

 The electronic state is 1-A.
 Alpha  occ. eigenvalues --  -19.18571 -19.18149 -19.16034 -19.15963 -19.15922
 Alpha  occ. eigenvalues --  -19.14853 -19.14614 -19.12910 -10.28840 -10.25710
 Alpha  occ. eigenvalues --  -10.25012 -10.24901 -10.24649 -10.24511  -1.06979
 Alpha  occ. eigenvalues --   -1.05709  -1.03907  -1.03254  -1.02772  -1.01174
 Alpha  occ. eigenvalues --   -1.00688  -0.99876  -0.78082  -0.75672  -0.70470
 Alpha  occ. eigenvalues --   -0.64522  -0.61632  -0.57198  -0.55922  -0.54542
 Alpha  occ. eigenvalues --   -0.53542  -0.52828  -0.52363  -0.50510  -0.50134
 Alpha  occ. eigenvalues --   -0.47699  -0.46745  -0.45452  -0.44230  -0.43905
 Alpha  occ. eigenvalues --   -0.41414  -0.40543  -0.40275  -0.39476  -0.39370
 Alpha  occ. eigenvalues --   -0.37452  -0.36780  -0.35534  -0.34952  -0.34069
 Alpha  occ. eigenvalues --   -0.32175  -0.31271  -0.30841  -0.29802  -0.28551
 Alpha  occ. eigenvalues --   -0.27296  -0.26418  -0.25428
 Alpha virt. eigenvalues --   -0.03009   0.03800   0.04698   0.07379   0.09334
 Alpha virt. eigenvalues --    0.10695   0.11034   0.12865   0.13485   0.13963
 Alpha virt. eigenvalues --    0.14733   0.15186   0.16255   0.17375   0.18316

 Mulliken charges:
               1
     1  O   -0.663818
     2  C    0.131628
     3  C    0.044224
     4  C    0.120481
     5  C    0.280861
     6  C    0.062712
     7  H    0.137551
     8  H    0.126000
     9  H    0.143903
    10  C   -0.079631
    11  H    0.172722
    12  H    0.155493
    13  H    0.179178
    14  O   -0.621841
    15  H    0.406799
    16  O   -0.640507
    17  H    0.406603
    18  O   -0.685934
    19  H    0.430596
    20  O   -0.704640
    21  H    0.433770
    22  H    0.150640
    23  O   -0.461500
    24  O   -0.810217
    25  H    0.420587
    26  H    0.429692
    27  H    0.414595
    28  O   -0.804072
    29  H    0.393967
    30  H    0.430159
 Sum of Mulliken charges =  -0.00000

 Dipole moment (field-independent basis, Debye):
    X=              0.4186    Y=              1.1151    Z=              3.0980  Tot=              3.3191
 Quadrupole moment (field-independent basis, Debye-Ang):
   XX=            -88.6780   YY=            -82.5602   ZZ=            -82.7239
   XY=              5.8941   XZ=              4.3334   YZ=             -2.2882

  Exact polarizability: 110.971  -1.934  98.500   1.878   1.546  80.693
 Approx polarizability: 149.614  -4.667 126.920   3.348   5.578 123.689

                      1                      2                      3
                      A                      A                      A
 Frequencies --     28.6089                55.7661                64.7471
 Red. masses --      6.1249                 6.3382                 6.3699
 Frc consts  --      0.0030                 0.0116                 0.0157
 IR Inten    --      0.6530                 3.6176                 1.1200

                      4                      5                      6
                      A                      A                      A
 Frequencies --     75.4765               114.4692               124.7776
 Red. masses --      5.7043                 6.4358                 4.5842
 Frc consts  --      0.0191                 0.0497                 0.0421
 IR Inten    --     10.9820                 5.4642                10.0216

                      7                      8                      9
                      A                      A                      A
 Frequencies --    131.9050               167.6664               169.8377
 Red. masses --      7.1810                 2.6003                 5.6351
 Frc consts  --      0.0736                 0.0431                 0.0958
 IR Inten    --     12.3598                 7.1034                 9.1283

                     10                     11                     12
                      A                      A                      A
 Frequencies --    182.8863               204.3923               218.4811
 Red. masses --      4.8356                 3.8436                 1.7505
 Frc consts  --      0.0953                 0.0946                 0.0492
 IR Inten    --      0.2978                19.0649                54.9793

                     13                     14                     15
                      A                      A                      A
 Frequencies --    230.7792               247.1773               269.7882
 Red. masses --      3.7269                 3.2376                 3.3977
 Frc consts  --      0.1169                 0.1165                 0.1457
 IR Inten    --      8.6158                28.3775                11.3829

                     16                     17                     18
                      A                      A                      A
 Frequencies --    284.9858               298.3195               313.5199
 Red. masses --      5.2859                 3.2386                 1.1041
 Frc consts  --      0.2529                 0.1698                 0.0639
 IR Inten    --      3.0977                19.9959               112.5227

                     19                     20                     21
                      A                      A                      A
 Frequencies --    327.1078               361.8047               385.0075
 Red. masses --      1.5442                 1.5814                 1.4448
 Frc consts  --      0.0973                 0.1220                 0.1262
 IR Inten    --    115.2236                28.9923               121.7325

                     22                     23                     24
                      A                      A                      A
 Frequencies --    397.7218               418.9533               447.7457
 Red. masses --      5.0343                 6.2284                 5.4955
 Frc consts  --      0.4692                 0.6441                 0.6491
 IR Inten    --      0.9129                27.3597                15.6568

                     25                     26                     27
                      A                      A                      A
 Frequencies --    478.9149               481.6471               538.8624
 Red. masses --      1.8277                 2.3005                 2.2922
 Frc consts  --      0.2470                 0.3144                 0.3922
 IR Inten    --     90.1340                81.4202                59.0463

                     28                     29                     30
                      A                      A                      A
 Frequencies --    557.6507               580.7600               612.9043
 Red. masses --      3.4722                 1.4121                 1.6633
 Frc consts  --      0.6362                 0.2806                 0.3681
 IR Inten    --     50.3181               224.9146                24.8669

                     31                     32                     33
                      A                      A                      A
 Frequencies --    636.6144               691.2403               722.3871
 Red. masses --      1.6169                 1.4611                 2.1639
 Frc consts  --      0.3861                 0.4113                 0.6653
 IR Inten    --     36.8821                 4.5111                29.3877

                     34                     35                     36
                      A                      A                      A
 Frequencies --    793.0282               824.0953               871.3768
 Red. masses --      1.0750                 3.2003                 1.1532
 Frc consts  --      0.3983                 1.2806                 0.5159
 IR Inten    --    271.7642                62.6367               133.2303

                     37                     38                     39
                      A                      A                      A
 Frequencies --    892.6870               926.9465               960.6740
 Red. masses --      1.6763                 1.0706                 2.0189
 Frc consts  --      0.7870                 0.5420                 1.0978
 IR Inten    --     21.8729               127.1421                17.8869

                     40                     41                     42
                      A                      A                      A
 Frequencies --   1016.4694              1033.1253              1068.4374
 Red. masses --      2.8705                 4.7335                 2.8353
 Frc consts  --      1.7474                 2.9767                 1.9070
 IR Inten    --    107.4873                29.4922                23.0390

                     43                     44                     45
                      A                      A                      A
 Frequencies --   1073.9098              1094.4623              1101.2719
 Red. masses --      4.6550                 3.5257                 3.7176
 Frc consts  --      3.1631                 2.4882                 2.6565
 IR Inten    --    108.7186                58.3644                18.9038

                     46                     47                     48
                      A                      A                      A
 Frequencies --   1121.8569              1129.5383              1140.1743
 Red. masses --      2.5473                 3.0821                 2.7684
 Frc consts  --      1.8889                 2.3168                 2.1205
 IR Inten    --     14.9293                48.2387                21.3608

                     49                     50                     51
                      A                      A                      A
 Frequencies --   1196.9279              1275.5337              1291.0540
 Red. masses --      1.3908                 1.1262                 1.1797
 Frc consts  --      1.1740                 1.0796                 1.1586
 IR Inten    --     10.3533                18.3361                 4.5022

                     52                     53                     54
                      A                      A                      A
 Frequencies --   1304.7200              1326.3851              1355.5061
 Red. masses --      1.1565                 1.1727                 1.1687
 Frc consts  --      1.1599                 1.2155                 1.2652
 IR Inten    --     46.1318                21.0687                 1.8416

                     55                     56                     57
                      A                      A                      A
 Frequencies --   1376.6286              1387.5539              1393.7607
 Red. masses --      1.2594                 1.3018                 1.3096
 Frc consts  --      1.4062                 1.4767                 1.4989
 IR Inten    --     13.4023                43.3841                52.8185

                     58                     59                     60
                      A                      A                      A
 Frequencies --   1397.0682              1415.7786              1428.1233
 Red. masses --      1.2541                 1.2812                 1.2719
 Frc consts  --      1.4422                 1.5131                 1.5284
 IR Inten    --     30.1994                 2.7554                16.8792

                     61                     62                     63
                      A                      A                      A
 Frequencies --   1446.9126              1486.8308              1507.9776
 Red. masses --      1.4287                 1.3166                 1.2537
 Frc consts  --      1.7623                 1.7149                 1.6797
 IR Inten    --     36.5363                34.4765                45.2622

                     64                     65                     66
                      A                      A                      A
 Frequencies --   1517.4612              1532.8952              1728.4164
 Red. masses --      1.2238                 1.1746                 1.0741
 Frc consts  --      1.6603                 1.6261                 1.8905
 IR Inten    --     28.9451                23.5681                50.6850

                     67                     68                     69
                      A                      A                      A
 Frequencies --   1745.5315              1786.5671              2979.3935
 Red. masses --      1.2023                 4.9904                 1.0802
 Frc consts  --      2.1583                 9.3848                 5.6493
 IR Inten    --    197.6801               119.7549                18.0098

                     70                     71                     72
                      A                      A                      A
 Frequencies --   2999.0258              3004.9972              3022.7457
 Red. masses --      1.0831                 1.0829                 1.0859
 Frc consts  --      5.7394                 5.7614                 5.8460
 IR Inten    --     18.4145                 6.7383                33.6271

                     73                     74                     75
                      A                      A                      A
 Frequencies --   3032.7188              3056.4275              3130.3130
 Red. masses --      1.0894                 1.0655                 1.1027
 Frc consts  --      5.9034                 5.8644                 6.3660
 IR Inten    --     69.0804                41.4926                20.3334

                     76                     77                     78
                      A                      A                      A
 Frequencies --   3400.6072              3403.6907              3506.3637
 Red. masses --      1.0679                 1.0681                 1.0628
 Frc consts  --      7.2760                 7.2908                 7.6983
 IR Inten    --    209.1084               788.0390               938.9149

                     79                     80                     81
                      A                      A                      A
 Frequencies --   3539.3619              3640.3123              3698.4482
 Red. masses --      1.0634                 1.0518                 1.0649
 Frc consts  --      7.8488                 8.2124                 8.5825
 IR Inten    --    206.5024               153.9649                28.9288

                     82                     83                     84
                      A                      A                      A
 Frequencies --   3735.9380              3743.2919              3794.6669
 Red. masses --      1.0662                 1.0744                 1.0692
 Frc consts  --      8.7675                 8.8702                 9.0710
 IR Inten    --     25.0650                68.5687                62.3473

 - Thermochemistry -
 -------------------
 Temperature   298.150 Kelvin.  Pressure   1.00000 Atm.
 Atom     1 has atomic number  8 and mass  15.99491

 Molecular mass:   216.08452 amu.
 Principal axes and moments of inertia in atomic units:
                           1         2         3
     Eigenvalues --  2557.717483624.951895418.55598
           X            0.99976  -0.02179  -0.00185
           Y            0.02178   0.99975  -0.00557
           Z            0.00197   0.00552   0.99998
 This molecule is an asymmetric top.
 Rotational symmetry number  1.
 Warning -- assumption of classical behavior for rotation
           may cause significant error
 Rotational temperatures (Kelvin)      0.03386     0.02389     0.01598
 Rotational constants (GHZ):           0.70561     0.49787     0.33307
 Zero-point vibrational energy     648740.2 (Joules/Mol)
                                  155.05263 (Kcal/Mol)
 Warning -- explicit consideration of  30 degrees of freedom as
           vibrations may cause significant error
 Vibrational temperatures:     41.16    80.23    93.16   108.59   164.70
          (Kelvin)            179.53   189.78   241.23   244.36   263.13
                              294.07   314.35   332.04   355.63   388.16
                              410.03   429.21   451.08   470.63   520.56
                              553.94   572.23   602.78   644.21   689.05
                              692.98   775.30   802.33   835.58   881.83
                              915.94   994.54  1039.35  1140.99  1185.69
                             1253.72  1284.38  1333.67  1382.19  1462.47
                             1486.44  1537.24  1545.11  1574.69  1584.48
                             1614.10  1625.15  1640.45  1722.11  1835.21
                             1857.54  1877.20  1908.37  1950.27  1980.66
                             1996.38  2005.31  2010.07  2036.99  2054.75
                             2081.78  2139.22  2169.64  2183.29  2205.49
                             2486.80  2511.43  2570.47  4286.68  4314.92
                             4323.52  4349.05  4363.40  4397.51  4503.82
                             4892.71  4897.15  5044.87  5092.35  5237.59
                             5321.24  5375.17  5385.76  5459.67

 Zero-point correction=                           0.247092 (Hartree/Particle)
 Thermal correction to Energy=                    0.265130
 Thermal correction to Enthalpy=                  0.266074
 Thermal correction to Gibbs Free Energy=         0.201735
 Sum of electronic and zero-point Energies=           -839.744991
 Sum of electronic and thermal Energies=              -839.726953
 Sum of electronic and thermal Enthalpies=            -839.726008
 Sum of electronic and thermal Free Energies=         -839.790347

                     E (Thermal)             CV                S
                      KCal/Mol        Cal/Mol-Kelvin    Cal/Mol-Kelvin
 Total                  166.372             65.601            135.412
 Electronic               0.000              0.000              0.000
 Translational            0.889              2.981             42.015
 Rotational               0.889              2.981             32.285
 Vibrational            164.594             59.640             61.112
 Vibration     1          0.593              1.984              5.924
 Vibration     2          0.596              1.975              4.602
 Vibration     3          0.597              1.971              4.307
 Vibration     4          0.599              1.965              4.005
 Vibration     5          0.607              1.937              3.192
 Vibration     6          0.610              1.928              3.025
 Vibration     7          0.612              1.921              2.918
 Vibration     8          0.624              1.882              2.461
 Vibration     9          0.625              1.880              2.437
 Vibration    10          0.630              1.863              2.299
 Vibration    11          0.640              1.834              2.093
 Vibration    12          0.646              1.813              1.972
 Vibration    13          0.652              1.794              1.873
 Vibration    14          0.661              1.767              1.751
 Vibration    15          0.674              1.729              1.598
 Vibration    16          0.683              1.702              1.504
 Vibration    17          0.691              1.677              1.426
 Vibration    18          0.701              1.648              1.344
 Vibration    19          0.711              1.621              1.274
 Vibration    20          0.736              1.551              1.114
 Vibration    21          0.754              1.502              1.019
 Vibration    22          0.764              1.475              0.971
 Vibration    23          0.782              1.429              0.896
 Vibration    24          0.807              1.366              0.803
 Vibration    25          0.835              1.297              0.713
 Vibration    26          0.838              1.291              0.706
 Vibration    27          0.894              1.164              0.568
 Vibration    28          0.913              1.123              0.529
 Vibration    29          0.937              1.073              0.484
 Vibration    30          0.972              1.005              0.428

 Normal termination of Gaussian 09 at Sun Jan 15 14:10:35 2017.
