 Gaussian 09, Revision E.01,
 Gaussian 09:  ES64L-G09RevE.01 30-Nov-2015

 -----------------------------------------
 # opt=(MaxCycle=1000) freq B3LYP/6-31G(d)
 -----------------------------------------

 -----------------------------------------------
 ./boats/4/glo_1w_alpha_ts_boat4_B3LYP_631Gd.out
 -----------------------------------------------
 Symbolic Z-matrix:
 Charge =  0 Multiplicity = 1

 SCF Done:  E(RB3LYP) =  -839.979271918     A.U. after   14 cycles
 SCF Done:  E(RB3LYP) =  -839.988062945     A.U. after   11 cycles
 SCF Done:  E(RB3LYP) =  -839.995374395     A.U. after   12 cycles
 SCF Done:  E(RB3LYP) =  -839.998206083     A.U. after   11 cycles
 SCF Done:  E(RB3LYP) =  -839.999191125     A.U. after   11 cycles
 SCF Done:  E(RB3LYP) =  -840.000099281     A.U. after   11 cycles
 SCF Done:  E(RB3LYP) =  -840.000621515     A.U. after   11 cycles
 SCF Done:  E(RB3LYP) =  -840.000925801     A.U. after   11 cycles
 SCF Done:  E(RB3LYP) =  -840.001050921     A.U. after   10 cycles
 SCF Done:  E(RB3LYP) =  -840.001122157     A.U. after    9 cycles
 SCF Done:  E(RB3LYP) =  -840.001249806     A.U. after    9 cycles
 SCF Done:  E(RB3LYP) =  -840.001258760     A.U. after    8 cycles
 SCF Done:  E(RB3LYP) =  -840.001261243     A.U. after    7 cycles
 SCF Done:  E(RB3LYP) =  -840.001262952     A.U. after    7 cycles
 SCF Done:  E(RB3LYP) =  -840.001265425     A.U. after    8 cycles
 SCF Done:  E(RB3LYP) =  -840.001267361     A.U. after    8 cycles
 SCF Done:  E(RB3LYP) =  -840.001268138     A.U. after    7 cycles
 SCF Done:  E(RB3LYP) =  -840.001268536     A.U. after    7 cycles
 SCF Done:  E(RB3LYP) =  -840.001268746     A.U. after    6 cycles
 Optimization completed.
    -- Stationary point found.
 Normal termination of Gaussian 09 at Sun Jan 15 12:25:23 2017.

 --------------------------------------------------------------------
 #N Geom=AllCheck Guess=TCheck SCRF=Check GenChk RB3LYP/6-31G(d) Freq
 --------------------------------------------------------------------

 Structure from the checkpoint file:  "/scratch/10462921.yak.local/Gau-31176.chk"
 -----------------------------------------------
 ./boats/4/glo_1w_alpha_ts_boat4_B3LYP_631Gd.out
 -----------------------------------------------
 Charge =  0 Multiplicity = 1

                         Standard orientation:
 ---------------------------------------------------------------------
 Center     Atomic      Atomic             Coordinates (Angstroms)
 Number     Number       Type             X           Y           Z
 ---------------------------------------------------------------------
      1          8           0       -1.324329    0.367832   -0.407440
      2          6           0        1.070062    0.354711   -0.164890
      3          6           0       -0.291239   -1.704368    0.501079
      4          6           0        1.099063   -1.160916    0.150713
      5          6           0       -1.412238   -1.078525   -0.333160
      6          6           0       -0.244764    1.012332    0.277635
      7          1           0        1.713427   -1.288373    1.054746
      8          1           0       -0.357886    0.909077    1.365067
      9          1           0        1.130798    0.458477   -1.259464
     10          6           0       -0.334771    2.486936   -0.128378
     11          1           0       -0.209912    2.578759   -1.211185
     12          1           0       -1.323506    2.888580    0.134011
     13          1           0       -0.288955   -2.783652    0.294746
     14          8           0        0.710072    3.276091    0.454764
     15          1           0        0.551505    3.322099    1.411763
     16          8           0       -0.527897   -1.446900    1.879982
     17          1           0       -1.491177   -1.546654    1.990726
     18          8           0        1.597622   -1.913899   -0.935396
     19          1           0        2.524096   -1.611337   -1.077268
     20          8           0        2.207249    0.967152    0.459191
     21          1           0        2.085930    1.934783    0.374379
     22          1           0       -1.363449   -1.424233   -1.372973
     23          8           0       -2.614088   -1.444323    0.276650
     24          8           0       -4.057792    0.479970   -1.072852
     25          1           0       -3.341256   -0.987146   -0.206539
     26          1           0       -3.153676    0.842114   -0.980452
     27          1           0       -4.578289    0.954629   -0.406492
     28          8           0        4.078176   -0.626842   -0.833038
     29          1           0        4.610293   -1.076536   -0.159307
     30          1           0        3.623278    0.095741   -0.344626
 ---------------------------------------------------------------------

 SCF Done:  E(RB3LYP) =  -840.001268746     A.U. after    1 cycles

 The electronic state is 1-A.
 Alpha  occ. eigenvalues --  -19.18911 -19.17299 -19.16477 -19.16249 -19.15104
 Alpha  occ. eigenvalues --  -19.14434 -19.14219 -19.12063 -10.28876 -10.25836
 Alpha  occ. eigenvalues --  -10.25204 -10.24146 -10.23430 -10.23115  -1.07713
 Alpha  occ. eigenvalues --   -1.05821  -1.03319  -1.02265  -1.01844  -1.00554
 Alpha  occ. eigenvalues --   -1.00306  -0.99311  -0.78404  -0.76524  -0.69981
 Alpha  occ. eigenvalues --   -0.64601  -0.63768  -0.56311  -0.55727  -0.54699
 Alpha  occ. eigenvalues --   -0.54159  -0.53009  -0.52274  -0.50429  -0.50267
 Alpha  occ. eigenvalues --   -0.48995  -0.45855  -0.45156  -0.43695  -0.42784
 Alpha  occ. eigenvalues --   -0.41327  -0.40596  -0.39747  -0.39563  -0.38255
 Alpha  occ. eigenvalues --   -0.37775  -0.36122  -0.35610  -0.34047  -0.32755
 Alpha  occ. eigenvalues --   -0.31367  -0.30840  -0.29775  -0.28976  -0.28840
 Alpha  occ. eigenvalues --   -0.27828  -0.26157  -0.25003
 Alpha virt. eigenvalues --    0.03314   0.05109   0.07143   0.09354   0.09675
 Alpha virt. eigenvalues --    0.10475   0.12208   0.13287   0.13744   0.14915
 Alpha virt. eigenvalues --    0.15738   0.16389   0.17142   0.17615   0.19291

 Mulliken charges:
               1
     1  O   -0.562562
     2  C    0.097787
     3  C    0.079698
     4  C    0.126559
     5  C    0.340927
     6  C    0.101970
     7  H    0.142209
     8  H    0.149809
     9  H    0.139521
    10  C   -0.069476
    11  H    0.170914
    12  H    0.141296
    13  H    0.155259
    14  O   -0.619104
    15  H    0.407365
    16  O   -0.652783
    17  H    0.414423
    18  O   -0.678427
    19  H    0.427643
    20  O   -0.684084
    21  H    0.422967
    22  H    0.150595
    23  O   -0.668381
    24  O   -0.791157
    25  H    0.425568
    26  H    0.418898
    27  H    0.398065
    28  O   -0.810363
    29  H    0.395219
    30  H    0.429646
 Sum of Mulliken charges =  -0.00000

 Dipole moment (field-independent basis, Debye):
    X=             -1.3460    Y=              3.9195    Z=              2.7097  Tot=              4.9515
 Quadrupole moment (field-independent basis, Debye-Ang):
   XX=            -77.9441   YY=            -82.6499   ZZ=            -87.8648
   XY=             -6.4779   XZ=              0.7979   YZ=              3.2472

  Exact polarizability: 108.881  -1.758  96.768   0.289   2.331  79.820
 Approx polarizability: 136.305   0.424 125.868   1.326   4.743 123.264

                      1                      2                      3
                      A                      A                      A
 Frequencies --     36.3585                47.7697                52.4165
 Red. masses --      5.7637                 6.1320                 5.7519
 Frc consts  --      0.0045                 0.0082                 0.0093
 IR Inten    --      1.1287                 1.0450                 4.1946

                      4                      5                      6
                      A                      A                      A
 Frequencies --     86.5733               106.3765               110.4488
 Red. masses --      6.2800                 5.0651                 5.7494
 Frc consts  --      0.0277                 0.0338                 0.0413
 IR Inten    --      0.1975                 4.6618                16.1104

                      7                      8                      9
                      A                      A                      A
 Frequencies --    169.5538               172.9003               186.7834
 Red. masses --      5.4162                 2.6437                 6.8126
 Frc consts  --      0.0917                 0.0466                 0.1400
 IR Inten    --      7.1866                 2.5285                 4.9964

                     10                     11                     12
                      A                      A                      A
 Frequencies --    194.3052               237.8950               254.6413
 Red. masses --      6.9904                 4.3776                 5.3462
 Frc consts  --      0.1555                 0.1460                 0.2042
 IR Inten    --      1.9555                 4.2375                14.9242

                     13                     14                     15
                      A                      A                      A
 Frequencies --    272.5642               292.5758               300.2187
 Red. masses --      1.1777                 1.9785                 1.3212
 Frc consts  --      0.0516                 0.0998                 0.0702
 IR Inten    --    134.2655                17.8881               124.7446

                     16                     17                     18
                      A                      A                      A
 Frequencies --    320.1901               341.5346               358.4754
 Red. masses --      1.7894                 1.6816                 2.1977
 Frc consts  --      0.1081                 0.1156                 0.1664
 IR Inten    --     71.2950               140.3488                 6.8486

                     19                     20                     21
                      A                      A                      A
 Frequencies --    366.1093               380.7067               395.1053
 Red. masses --      2.8960                 2.5004                 1.4178
 Frc consts  --      0.2287                 0.2135                 0.1304
 IR Inten    --     32.4750                91.3062                32.4745

                     22                     23                     24
                      A                      A                      A
 Frequencies --    403.5305               424.1086               488.1922
 Red. masses --      4.8647                 3.7418                 2.9758
 Frc consts  --      0.4667                 0.3965                 0.4179
 IR Inten    --     17.4566                45.3623                65.0006

                     25                     26                     27
                      A                      A                      A
 Frequencies --    509.9945               532.6735               537.0972
 Red. masses --      3.1867                 1.8731                 2.8360
 Frc consts  --      0.4883                 0.3131                 0.4820
 IR Inten    --     22.5491                41.5874                18.0273

                     28                     29                     30
                      A                      A                      A
 Frequencies --    596.7729               630.5757               678.5980
 Red. masses --      3.0719                 1.2444                 1.2367
 Frc consts  --      0.6446                 0.2915                 0.3355
 IR Inten    --      5.6803               192.6998                16.5512

                     31                     32                     33
                      A                      A                      A
 Frequencies --    689.3023               782.5411               810.3359
 Red. masses --      3.2575                 1.0907                 4.8974
 Frc consts  --      0.9119                 0.3935                 1.8947
 IR Inten    --     15.7110               215.6851                98.7963

                     34                     35                     36
                      A                      A                      A
 Frequencies --    814.4445               840.6528               867.1200
 Red. masses --      1.2189                 1.2078                 2.1449
 Frc consts  --      0.4764                 0.5029                 0.9502
 IR Inten    --    110.6193               212.2528                62.5629

                     37                     38                     39
                      A                      A                      A
 Frequencies --    894.8501               963.5345              1019.1257
 Red. masses --      2.0405                 2.6401                 3.4426
 Frc consts  --      0.9627                 1.4441                 2.1066
 IR Inten    --      6.9066                25.7577                85.3431

                     40                     41                     42
                      A                      A                      A
 Frequencies --   1044.0192              1061.0925              1074.9529
 Red. masses --      2.9342                 4.7713                 4.0708
 Frc consts  --      1.8844                 3.1652                 2.7714
 IR Inten    --     77.1206                29.4281               105.5522

                     43                     44                     45
                      A                      A                      A
 Frequencies --   1090.0715              1104.9248              1116.5828
 Red. masses --      4.8584                 2.7317                 2.7051
 Frc consts  --      3.4014                 1.9650                 1.9871
 IR Inten    --    114.4432                60.7276                68.1770

                     46                     47                     48
                      A                      A                      A
 Frequencies --   1122.7142              1148.6281              1155.5817
 Red. masses --      3.9207                 3.5389                 2.9175
 Frc consts  --      2.9117                 2.7509                 2.2954
 IR Inten    --      6.0997                39.6686                45.2611

                     49                     50                     51
                      A                      A                      A
 Frequencies --   1205.2438              1269.4600              1294.2419
 Red. masses --      1.3790                 1.2128                 1.1923
 Frc consts  --      1.1803                 1.1515                 1.1767
 IR Inten    --     22.8638                37.5780                14.3782

                     52                     53                     54
                      A                      A                      A
 Frequencies --   1305.8063              1319.9372              1331.0406
 Red. masses --      1.1418                 1.1543                 1.1897
 Frc consts  --      1.1471                 1.1849                 1.2419
 IR Inten    --     47.1613                67.1686                10.6016

                     55                     56                     57
                      A                      A                      A
 Frequencies --   1354.4002              1379.9469              1390.0835
 Red. masses --      1.2217                 1.2359                 1.2950
 Frc consts  --      1.3204                 1.3866                 1.4744
 IR Inten    --     16.7012                71.8361                11.8273

                     58                     59                     60
                      A                      A                      A
 Frequencies --   1395.4123              1413.7902              1421.4963
 Red. masses --      1.2248                 1.2099                 1.3249
 Frc consts  --      1.4052                 1.4249                 1.5774
 IR Inten    --      9.1660                 3.7479                32.4359

                     61                     62                     63
                      A                      A                      A
 Frequencies --   1437.4809              1453.2518              1469.8044
 Red. masses --      1.3298                 1.4612                 1.4630
 Frc consts  --      1.6190                 1.8183                 1.8622
 IR Inten    --     32.6796                46.8087                67.8079

                     64                     65                     66
                      A                      A                      A
 Frequencies --   1514.4288              1529.9037              1536.5926
 Red. masses --      1.4435                 1.3792                 1.1024
 Frc consts  --      1.9506                 1.9020                 1.5336
 IR Inten    --     15.2394                52.7485                 5.6998

                     67                     68                     69
                      A                      A                      A
 Frequencies --   1723.9265              1731.0451              3007.2495
 Red. masses --      1.0763                 1.0751                 1.0831
 Frc consts  --      1.8847                 1.8980                 5.7712
 IR Inten    --     50.7231                50.7016                 7.9463

                     70                     71                     72
                      A                      A                      A
 Frequencies --   3018.8655              3036.7312              3042.0948
 Red. masses --      1.0841                 1.0689                 1.0848
 Frc consts  --      5.8213                 5.8076                 5.9150
 IR Inten    --     35.3897                62.2511                20.0687

                     73                     74                     75
                      A                      A                      A
 Frequencies --   3052.6439              3066.9607              3123.2358
 Red. masses --      1.0840                 1.0866                 1.0990
 Frc consts  --      5.9515                 6.0218                 6.3165
 IR Inten    --     25.8783                53.6180                24.2216

                     76                     77                     78
                      A                      A                      A
 Frequencies --   3470.1500              3473.0988              3537.1237
 Red. masses --      1.0656                 1.0655                 1.0608
 Frc consts  --      7.5600                 7.5722                 7.8198
 IR Inten    --    363.8161               230.0900               752.0479

                     79                     80                     81
                      A                      A                      A
 Frequencies --   3597.2798              3623.8589              3681.4073
 Red. masses --      1.0653                 1.0536                 1.0646
 Frc consts  --      8.1219                 8.1523                 8.5010
 IR Inten    --    147.3065               299.7456                55.6483

                     82                     83                     84
                      A                      A                      A
 Frequencies --   3733.8077              3797.6170              3800.8555
 Red. masses --      1.0662                 1.0698                 1.0739
 Frc consts  --      8.7575                 9.0900                 9.1405
 IR Inten    --     25.7850                72.6147                79.2978

 - Thermochemistry -
 -------------------
 Temperature   298.150 Kelvin.  Pressure   1.00000 Atm.
 Atom     1 has atomic number  8 and mass  15.99491

 Molecular mass:   216.08452 amu.
 Principal axes and moments of inertia in atomic units:
                           1         2         3
     Eigenvalues --  2363.355263875.805185286.56414
           X            0.99983  -0.01843   0.00154
           Y            0.01843   0.99983   0.00223
           Z           -0.00158  -0.00220   1.00000
 This molecule is an asymmetric top.
 Rotational symmetry number  1.
 Warning -- assumption of classical behavior for rotation
           may cause significant error
 Rotational temperatures (Kelvin)      0.03665     0.02235     0.01638
 Rotational constants (GHZ):           0.76364     0.46564     0.34138
 Zero-point vibrational energy     655707.9 (Joules/Mol)
                                  156.71794 (Kcal/Mol)
 Warning -- explicit consideration of  28 degrees of freedom as
           vibrations may cause significant error
 Vibrational temperatures:     52.31    68.73    75.42   124.56   153.05
          (Kelvin)            158.91   243.95   248.76   268.74   279.56
                              342.28   366.37   392.16   420.95   431.95
                              460.68   491.39   515.77   526.75   547.75
                              568.47   580.59   610.20   702.40   733.77
                              766.40   772.76   858.62   907.26   976.35
                              991.75  1125.90  1165.89  1171.80  1209.51
                             1247.59  1287.49  1386.31  1466.29  1502.11
                             1526.67  1546.62  1568.37  1589.74  1606.51
                             1615.33  1652.62  1662.62  1734.07  1826.47
                             1862.12  1878.76  1899.09  1915.07  1948.68
                             1985.43  2000.02  2007.68  2034.13  2045.21
                             2068.21  2090.90  2114.72  2178.92  2201.19
                             2210.81  2480.34  2490.58  4326.76  4343.47
                             4369.17  4376.89  4392.07  4412.67  4493.63
                             4992.77  4997.01  5089.13  5175.68  5213.92
                             5296.72  5372.11  5463.92  5468.58

 Zero-point correction=                           0.249746 (Hartree/Particle)
 Thermal correction to Energy=                    0.266926
 Thermal correction to Enthalpy=                  0.267870
 Thermal correction to Gibbs Free Energy=         0.205284
 Sum of electronic and zero-point Energies=           -839.751523
 Sum of electronic and thermal Energies=              -839.734343
 Sum of electronic and thermal Enthalpies=            -839.733399
 Sum of electronic and thermal Free Energies=         -839.795985

                     E (Thermal)             CV                S
                      KCal/Mol        Cal/Mol-Kelvin    Cal/Mol-Kelvin
 Total                  167.498             63.598            131.724
 Electronic               0.000              0.000              0.000
 Translational            0.889              2.981             42.015
 Rotational               0.889              2.981             32.249
 Vibrational            165.721             57.637             57.461
 Vibration     1          0.594              1.982              5.448
 Vibration     2          0.595              1.978              4.908
 Vibration     3          0.596              1.977              4.724
 Vibration     4          0.601              1.959              3.736
 Vibration     5          0.605              1.944              3.334
 Vibration     6          0.606              1.941              3.261
 Vibration     7          0.625              1.880              2.440
 Vibration     8          0.626              1.876              2.404
 Vibration     9          0.632              1.858              2.260
 Vibration    10          0.635              1.848              2.186
 Vibration    11          0.656              1.783              1.819
 Vibration    12          0.665              1.755              1.698
 Vibration    13          0.676              1.724              1.580
 Vibration    14          0.688              1.688              1.459
 Vibration    15          0.693              1.673              1.416
 Vibration    16          0.706              1.635              1.309
 Vibration    17          0.721              1.592              1.205
 Vibration    18          0.733              1.558              1.129
 Vibration    19          0.739              1.542              1.096
 Vibration    20          0.750              1.511              1.036
 Vibration    21          0.762              1.481              0.981
 Vibration    22          0.769              1.463              0.950
 Vibration    23          0.786              1.418              0.878
 Vibration    24          0.844              1.276              0.688
 Vibration    25          0.865              1.228              0.634
 Vibration    26          0.888              1.178              0.581
 Vibration    27          0.892              1.168              0.572
 Vibration    28          0.955              1.039              0.455

 Normal termination of Gaussian 09 at Sun Jan 15 12:43:45 2017.
