 Gaussian 09, Revision E.01,
 Gaussian 09:  ES64L-G09RevE.01 30-Nov-2015

 -----------------------------------------
 # opt=(MaxCycle=1000) freq B3LYP/6-31G(d)
 -----------------------------------------

 ------------------------------------------------
 ./boats/4/glo_2w_beta_ts_boat4_B3LYP_631Gd_r.out
 ------------------------------------------------
 Symbolic Z-matrix:
 Charge =  0 Multiplicity = 1

 SCF Done:  E(RB3LYP) =  -839.975690013     A.U. after   14 cycles
 SCF Done:  E(RB3LYP) =  -839.984350857     A.U. after   12 cycles
 SCF Done:  E(RB3LYP) =  -839.991377786     A.U. after   12 cycles
 SCF Done:  E(RB3LYP) =  -839.994075304     A.U. after   12 cycles
 SCF Done:  E(RB3LYP) =  -839.996106481     A.U. after   12 cycles
 SCF Done:  E(RB3LYP) =  -839.996621389     A.U. after   11 cycles
 SCF Done:  E(RB3LYP) =  -839.996743638     A.U. after   11 cycles
 SCF Done:  E(RB3LYP) =  -839.996862230     A.U. after   11 cycles
 SCF Done:  E(RB3LYP) =  -839.996962536     A.U. after   10 cycles
 SCF Done:  E(RB3LYP) =  -839.997014895     A.U. after    9 cycles
 SCF Done:  E(RB3LYP) =  -839.997053906     A.U. after    8 cycles
 SCF Done:  E(RB3LYP) =  -839.997058426     A.U. after    8 cycles
 SCF Done:  E(RB3LYP) =  -839.997059587     A.U. after    7 cycles
 SCF Done:  E(RB3LYP) =  -839.997060878     A.U. after    7 cycles
 SCF Done:  E(RB3LYP) =  -839.997060514     A.U. after    8 cycles
 SCF Done:  E(RB3LYP) =  -839.997060274     A.U. after    7 cycles
 SCF Done:  E(RB3LYP) =  -839.997060215     A.U. after    7 cycles
 SCF Done:  E(RB3LYP) =  -839.997059999     A.U. after    7 cycles
 SCF Done:  E(RB3LYP) =  -839.997060330     A.U. after    7 cycles
 Optimization completed.
    -- Stationary point found.
 Normal termination of Gaussian 09 at Sun Jan 15 12:27:23 2017.

 --------------------------------------------------------------------
 #N Geom=AllCheck Guess=TCheck SCRF=Check GenChk RB3LYP/6-31G(d) Freq
 --------------------------------------------------------------------

 Structure from the checkpoint file:  "/scratch/10462919.yak.local/Gau-32564.chk"
 ------------------------------------------------
 ./boats/4/glo_2w_beta_ts_boat4_B3LYP_631Gd_r.out
 ------------------------------------------------
 Charge =  0 Multiplicity = 1

                         Standard orientation:
 ---------------------------------------------------------------------
 Center     Atomic      Atomic             Coordinates (Angstroms)
 Number     Number       Type             X           Y           Z
 ---------------------------------------------------------------------
      1          8           0        0.609273   -0.319660   -0.850058
      2          6           0       -1.286371    0.862642    0.217156
      3          6           0       -1.234503   -1.647716    0.121999
      4          6           0       -2.059372   -0.391493   -0.176537
      5          6           0        0.284793   -1.350890    0.117013
      6          6           0        0.001503    0.964979   -0.616344
      7          1           0       -2.232900   -0.363921   -1.264618
      8          1           0       -0.290504    1.338765   -1.607891
      9          1           0       -1.041523    0.805218    1.285410
     10          1           0        0.826284   -2.220208   -0.278030
     11          6           0        1.016895    1.928449    0.010362
     12          1           0        1.276740    1.580444    1.012702
     13          1           0        1.938793    1.955248   -0.589413
     14          1           0       -1.495739   -1.993583    1.129343
     15          8           0        0.684614   -1.009270    1.399869
     16          8           0        0.460675    3.238394    0.170696
     17          1           0        0.372039    3.631333   -0.712621
     18          8           0       -1.570299   -2.616692   -0.865777
     19          1           0       -1.343338   -3.491520   -0.515683
     20          8           0       -3.287425   -0.462182    0.526275
     21          1           0       -3.678146    0.425533    0.451655
     22          8           0       -2.135278    1.981812   -0.033255
     23          1           0       -1.655772    2.755032    0.312560
     24          8           0        3.415169   -0.873718    1.329637
     25          1           0        3.586454   -0.718115    0.368909
     26          1           0        1.677334   -1.004123    1.435832
     27          1           0        3.722135   -0.071236    1.776602
     28          8           0        3.322039   -0.511459   -1.366465
     29          1           0        2.342490   -0.414958   -1.376965
     30          1           0        3.667850    0.172451   -1.957072
 ---------------------------------------------------------------------

 SCF Done:  E(RB3LYP) =  -839.997060330     A.U. after    1 cycles

 The electronic state is 1-A.
 Alpha  occ. eigenvalues --  -19.17839 -19.17285 -19.16039 -19.15164 -19.15121
 Alpha  occ. eigenvalues --  -19.14429 -19.13907 -19.13192 -10.28532 -10.24969
 Alpha  occ. eigenvalues --  -10.24920 -10.23547 -10.23356 -10.22902  -1.07091
 Alpha  occ. eigenvalues --   -1.04682  -1.03062  -1.02068  -1.01796  -1.00896
 Alpha  occ. eigenvalues --   -0.99939  -0.99500  -0.78275  -0.76577  -0.69352
 Alpha  occ. eigenvalues --   -0.64483  -0.62864  -0.56255  -0.55185  -0.54877
 Alpha  occ. eigenvalues --   -0.54008  -0.52940  -0.52486  -0.51402  -0.49401
 Alpha  occ. eigenvalues --   -0.47346  -0.46276  -0.44599  -0.43280  -0.42518
 Alpha  occ. eigenvalues --   -0.41261  -0.41113  -0.39705  -0.38761  -0.37642
 Alpha  occ. eigenvalues --   -0.36503  -0.35732  -0.34775  -0.33462  -0.32332
 Alpha  occ. eigenvalues --   -0.31512  -0.31397  -0.30213  -0.29571  -0.27368
 Alpha  occ. eigenvalues --   -0.27218  -0.26595  -0.24876
 Alpha virt. eigenvalues --    0.03827   0.03998   0.07298   0.07706   0.08968
 Alpha virt. eigenvalues --    0.10932   0.11711   0.12402   0.13658   0.14485
 Alpha virt. eigenvalues --    0.15212   0.16456   0.17218   0.17777   0.19805

 Mulliken charges:
               1
     1  O   -0.547937
     2  C    0.066739
     3  C    0.116380
     4  C    0.142945
     5  C    0.287288
     6  C    0.126672
     7  H    0.138987
     8  H    0.133206
     9  H    0.156278
    10  H    0.132965
    11  C   -0.070194
    12  H    0.168725
    13  H    0.115845
    14  H    0.161050
    15  O   -0.654823
    16  O   -0.617242
    17  H    0.399689
    18  O   -0.628687
    19  H    0.394910
    20  O   -0.647573
    21  H    0.407153
    22  O   -0.666468
    23  H    0.408259
    24  O   -0.818200
    25  H    0.439079
    26  H    0.444512
    27  H    0.394734
    28  O   -0.822843
    29  H    0.440737
    30  H    0.397814
 Sum of Mulliken charges =  -0.00000

 Dipole moment (field-independent basis, Debye):
    X=              3.3686    Y=              3.4232    Z=             -1.6941  Tot=              5.0927
 Quadrupole moment (field-independent basis, Debye-Ang):
   XX=            -86.8752   YY=            -75.4735   ZZ=            -83.7470
   XY=              5.9840   XZ=             -3.9169   YZ=             -5.2874

  Exact polarizability: 101.553   0.570 100.889  -1.401  -2.020  80.483
 Approx polarizability: 127.088  -2.923 132.214  -1.686  -2.634 124.168

                      1                      2                      3
                      A                      A                      A
 Frequencies --     35.1240                41.8891                50.1473
 Red. masses --      5.0160                 5.3911                 5.6120
 Frc consts  --      0.0036                 0.0056                 0.0083
 IR Inten    --      5.3727                 1.2653                 2.1860

                      4                      5                      6
                      A                      A                      A
 Frequencies --     83.4819                99.1492               129.1233
 Red. masses --      4.6005                 7.0778                 2.5172
 Frc consts  --      0.0189                 0.0410                 0.0247
 IR Inten    --      8.3470                 0.2558                32.6364

                      7                      8                      9
                      A                      A                      A
 Frequencies --    134.3922               158.4851               184.8208
 Red. masses --      5.3092                 2.7049                 4.0453
 Frc consts  --      0.0565                 0.0400                 0.0814
 IR Inten    --      4.9235                17.5738                21.7688

                     10                     11                     12
                      A                      A                      A
 Frequencies --    190.8071               211.9984               248.6334
 Red. masses --      2.2463                 3.9279                 1.3163
 Frc consts  --      0.0482                 0.1040                 0.0479
 IR Inten    --     67.5804                11.6839               119.7522

                     13                     14                     15
                      A                      A                      A
 Frequencies --    262.0103               268.3781               274.9283
 Red. masses --      4.6779                 4.1257                 2.9612
 Frc consts  --      0.1892                 0.1751                 0.1319
 IR Inten    --      4.7386                 5.2130                13.7286

                     16                     17                     18
                      A                      A                      A
 Frequencies --    281.0322               310.0599               317.6268
 Red. masses --      2.1449                 1.5869                 1.1929
 Frc consts  --      0.0998                 0.0899                 0.0709
 IR Inten    --     33.6503                93.1108               160.9633

                     19                     20                     21
                      A                      A                      A
 Frequencies --    344.2587               381.9875               404.6305
 Red. masses --      4.8682                 4.4364                 1.7459
 Frc consts  --      0.3399                 0.3814                 0.1684
 IR Inten    --      1.8653                38.3692                79.9062

                     22                     23                     24
                      A                      A                      A
 Frequencies --    422.0984               439.0352               458.7577
 Red. masses --      2.7043                 1.2134                 2.5100
 Frc consts  --      0.2839                 0.1378                 0.3112
 IR Inten    --     49.7760               118.3413                33.1396

                     25                     26                     27
                      A                      A                      A
 Frequencies --    482.4756               492.6903               512.5451
 Red. masses --      4.1349                 1.2611                 3.9117
 Frc consts  --      0.5671                 0.1804                 0.6055
 IR Inten    --     45.0752                31.6447                 6.9853

                     28                     29                     30
                      A                      A                      A
 Frequencies --    542.6697               582.1963               587.1854
 Red. masses --      3.8557                 1.5972                 1.8810
 Frc consts  --      0.6690                 0.3190                 0.3821
 IR Inten    --     17.1636                14.5301                67.5847

                     31                     32                     33
                      A                      A                      A
 Frequencies --    612.3947               652.2271               779.6231
 Red. masses --      4.0300                 1.1104                 5.2797
 Frc consts  --      0.8905                 0.2783                 1.8907
 IR Inten    --      3.0613               165.6096                85.9324

                     34                     35                     36
                      A                      A                      A
 Frequencies --    822.1159               873.5435               910.1636
 Red. masses --      1.0832                 2.5228                 1.7153
 Frc consts  --      0.4314                 1.1342                 0.8372
 IR Inten    --     64.3091                78.6114                29.7059

                     37                     38                     39
                      A                      A                      A
 Frequencies --    925.0606               995.3657              1024.4533
 Red. masses --      1.3086                 3.4257                 3.9331
 Frc consts  --      0.6598                 1.9997                 2.4320
 IR Inten    --    274.4630                16.7747                27.6390

                     40                     41                     42
                      A                      A                      A
 Frequencies --   1041.6043              1048.7386              1068.5498
 Red. masses --      3.8768                 4.0738                 3.9071
 Frc consts  --      2.4782                 2.6399                 2.6284
 IR Inten    --    104.3585               213.2808                21.6999

                     43                     44                     45
                      A                      A                      A
 Frequencies --   1088.2128              1101.8272              1128.7363
 Red. masses --      2.7319                 2.7176                 2.7194
 Frc consts  --      1.9061                 1.9439                 2.0413
 IR Inten    --     62.3570                61.1227                40.8147

                     46                     47                     48
                      A                      A                      A
 Frequencies --   1133.3084              1145.2425              1158.8718
 Red. masses --      3.3761                 4.2401                 3.0862
 Frc consts  --      2.5549                 3.2766                 2.4420
 IR Inten    --     49.4402                40.7287                59.2222

                     49                     50                     51
                      A                      A                      A
 Frequencies --   1187.3642              1225.4002              1289.4999
 Red. masses --      1.3597                 1.2225                 1.2090
 Frc consts  --      1.1295                 1.0816                 1.1845
 IR Inten    --     12.2269                25.5291                34.2700

                     52                     53                     54
                      A                      A                      A
 Frequencies --   1304.0706              1320.3006              1328.5400
 Red. masses --      1.1339                 1.1680                 1.2496
 Frc consts  --      1.1361                 1.1996                 1.2995
 IR Inten    --     77.4958                19.0885                10.1605

                     55                     56                     57
                      A                      A                      A
 Frequencies --   1334.7510              1355.1253              1384.2568
 Red. masses --      1.5076                 1.1471                 1.2223
 Frc consts  --      1.5824                 1.2411                 1.3800
 IR Inten    --      6.3066                 3.2944                22.3526

                     58                     59                     60
                      A                      A                      A
 Frequencies --   1399.4696              1408.0790              1413.7689
 Red. masses --      1.2593                 1.2892                 1.2819
 Frc consts  --      1.4531                 1.5059                 1.5095
 IR Inten    --     54.9458                47.7822                 4.6148

                     61                     62                     63
                      A                      A                      A
 Frequencies --   1424.6544              1425.5794              1471.5832
 Red. masses --      1.2908                 1.4058                 1.5807
 Frc consts  --      1.5436                 1.6832                 2.0169
 IR Inten    --     10.0591                23.0698                 6.2890

                     64                     65                     66
                      A                      A                      A
 Frequencies --   1480.7159              1535.1280              1540.6668
 Red. masses --      1.5677                 1.0853                 1.2797
 Frc consts  --      2.0252                 1.5069                 1.7896
 IR Inten    --     13.4995                 0.4326                44.7248

                     67                     68                     69
                      A                      A                      A
 Frequencies --   1728.5254              1735.4156              3000.6612
 Red. masses --      1.0744                 1.0739                 1.0827
 Frc consts  --      1.8913                 1.9056                 5.7438
 IR Inten    --     37.3701                44.5926                21.5433

                     70                     71                     72
                      A                      A                      A
 Frequencies --   3022.7028              3033.8342              3052.6359
 Red. masses --      1.0730                 1.0819                 1.0869
 Frc consts  --      5.7760                 5.8670                 5.9672
 IR Inten    --     60.0597                25.5263                45.8648

                     73                     74                     75
                      A                      A                      A
 Frequencies --   3060.9132              3070.4667              3140.2173
 Red. masses --      1.0856                 1.0857                 1.0954
 Frc consts  --      5.9925                 6.0307                 6.3644
 IR Inten    --     25.3256                28.9128                17.4103

                     76                     77                     78
                      A                      A                      A
 Frequencies --   3319.6851              3450.1845              3514.8141
 Red. masses --      1.0681                 1.0611                 1.0584
 Frc consts  --      6.9350                 7.4420                 7.7037
 IR Inten    --    581.0164               684.6467               660.7430

                     79                     80                     81
                      A                      A                      A
 Frequencies --   3701.5746              3711.7933              3732.3445
 Red. masses --      1.0655                 1.0652                 1.0662
 Frc consts  --      8.6019                 8.6469                 8.7509
 IR Inten    --     88.8064                30.5215                19.4520

                     82                     83                     84
                      A                      A                      A
 Frequencies --   3753.0967              3804.1718              3818.3586
 Red. masses --      1.0665                 1.0685                 1.0699
 Frc consts  --      8.8511                 9.1108                 9.1908
 IR Inten    --     19.2610                46.1732                75.2939

 - Thermochemistry -
 -------------------
 Temperature   298.150 Kelvin.  Pressure   1.00000 Atm.
 Atom     1 has atomic number  8 and mass  15.99491

 Molecular mass:   216.08452 amu.
 Principal axes and moments of inertia in atomic units:
                           1         2         3
     Eigenvalues --  2487.567773548.637345003.14870
           X            0.99998   0.00550  -0.00233
           Y           -0.00552   0.99995  -0.00775
           Z            0.00229   0.00776   0.99997
 This molecule is an asymmetric top.
 Rotational symmetry number  1.
 Warning -- assumption of classical behavior for rotation
           may cause significant error
 Rotational temperatures (Kelvin)      0.03482     0.02441     0.01731
 Rotational constants (GHZ):           0.72550     0.50857     0.36072
 Zero-point vibrational energy     651504.3 (Joules/Mol)
                                  155.71325 (Kcal/Mol)
 Warning -- explicit consideration of  31 degrees of freedom as
           vibrations may cause significant error
 Vibrational temperatures:     50.54    60.27    72.15   120.11   142.65
          (Kelvin)            185.78   193.36   228.02   265.92   274.53
                              305.02   357.73   376.97   386.14   395.56
                              404.34   446.11   456.99   495.31   549.59
                              582.17   607.30   631.67   660.05   694.17
                              708.87   737.44   780.78   837.65   844.83
                              881.10   938.41  1121.70  1182.84  1256.83
                             1309.52  1330.95  1432.11  1473.96  1498.63
                             1508.90  1537.40  1565.69  1585.28  1624.00
                             1630.58  1647.75  1667.36  1708.35  1763.08
                             1855.30  1876.26  1899.62  1911.47  1920.41
                             1949.72  1991.63  2013.52  2025.91  2034.10
                             2049.76  2051.09  2117.28  2130.42  2208.70
                             2216.67  2486.96  2496.87  4317.28  4348.99
                             4365.01  4392.06  4403.97  4417.71  4518.07
                             4776.28  4964.04  5057.03  5325.73  5340.44
                             5370.00  5399.86  5473.35  5493.76

 Zero-point correction=                           0.248145 (Hartree/Particle)
 Thermal correction to Energy=                    0.265931
 Thermal correction to Enthalpy=                  0.266875
 Thermal correction to Gibbs Free Energy=         0.202928
 Sum of electronic and zero-point Energies=           -839.748915
 Sum of electronic and thermal Energies=              -839.731129
 Sum of electronic and thermal Enthalpies=            -839.730185
 Sum of electronic and thermal Free Energies=         -839.794132

                     E (Thermal)             CV                S
                      KCal/Mol        Cal/Mol-Kelvin    Cal/Mol-Kelvin
 Total                  166.874             64.994            134.589
 Electronic               0.000              0.000              0.000
 Translational            0.889              2.981             42.015
 Rotational               0.889              2.981             32.157
 Vibrational            165.097             59.032             60.416
 Vibration     1          0.594              1.982              5.517
 Vibration     2          0.595              1.980              5.168
 Vibration     3          0.595              1.978              4.812
 Vibration     4          0.600              1.961              3.807
 Vibration     5          0.604              1.950              3.471
 Vibration     6          0.612              1.924              2.959
 Vibration     7          0.613              1.919              2.882
 Vibration     8          0.621              1.893              2.568
 Vibration     9          0.631              1.861              2.279
 Vibration    10          0.634              1.853              2.220
 Vibration    11          0.643              1.823              2.026
 Vibration    12          0.662              1.765              1.740
 Vibration    13          0.669              1.742              1.648
 Vibration    14          0.673              1.731              1.607
 Vibration    15          0.677              1.720              1.565
 Vibration    16          0.681              1.709              1.527
 Vibration    17          0.699              1.655              1.362
 Vibration    18          0.704              1.640              1.322
 Vibration    19          0.723              1.587              1.192
 Vibration    20          0.751              1.509              1.031
 Vibration    21          0.770              1.460              0.946
 Vibration    22          0.784              1.422              0.885
 Vibration    23          0.799              1.385              0.830
 Vibration    24          0.817              1.342              0.770
 Vibration    25          0.839              1.289              0.703
 Vibration    26          0.848              1.266              0.677
 Vibration    27          0.868              1.222              0.627
 Vibration    28          0.898              1.156              0.560
 Vibration    29          0.939              1.070              0.481
 Vibration    30          0.944              1.059              0.472
 Vibration    31          0.972              1.006              0.429

 Normal termination of Gaussian 09 at Sun Jan 15 12:44:58 2017.
