 Gaussian 09, Revision E.01,
 Gaussian 09:  ES64L-G09RevE.01 30-Nov-2015

 -----------------------------------------
 # opt=(MaxCycle=1000) freq B3LYP/6-31G(d)
 -----------------------------------------

 ----------------------------------------------
 ./boats/4/glo_2w_beta_ts_boat4_B3LYP_631Gd.out
 ----------------------------------------------
 Symbolic Z-matrix:
 Charge =  0 Multiplicity = 1

 SCF Done:  E(RB3LYP) =  -839.962973912     A.U. after   14 cycles
 SCF Done:  E(RB3LYP) =  -839.965178953     A.U. after   13 cycles
 SCF Done:  E(RB3LYP) =  -839.971160953     A.U. after   13 cycles
 SCF Done:  E(RB3LYP) =  -839.976397163     A.U. after   13 cycles
 SCF Done:  E(RB3LYP) =  -839.978292007     A.U. after   13 cycles
 SCF Done:  E(RB3LYP) =  -839.980797962     A.U. after   12 cycles
 SCF Done:  E(RB3LYP) =  -839.979822693     A.U. after   13 cycles
 SCF Done:  E(RB3LYP) =  -839.981818845     A.U. after   10 cycles
 SCF Done:  E(RB3LYP) =  -839.982197942     A.U. after   11 cycles
 SCF Done:  E(RB3LYP) =  -839.982738207     A.U. after   12 cycles
 SCF Done:  E(RB3LYP) =  -839.998905383     A.U. after   10 cycles
 SCF Done:  E(RB3LYP) =  -839.998914504     A.U. after    9 cycles
 SCF Done:  E(RB3LYP) =  -839.998919920     A.U. after    9 cycles
 SCF Done:  E(RB3LYP) =  -839.998922183     A.U. after    8 cycles
 SCF Done:  E(RB3LYP) =  -839.998923338     A.U. after    8 cycles
 SCF Done:  E(RB3LYP) =  -839.998924203     A.U. after    8 cycles
 SCF Done:  E(RB3LYP) =  -839.998924943     A.U. after    8 cycles
 SCF Done:  E(RB3LYP) =  -839.998925158     A.U. after    8 cycles
 SCF Done:  E(RB3LYP) =  -839.998925266     A.U. after    7 cycles
 Optimization completed.
    -- Stationary point found.
 Normal termination of Gaussian 09 at Sun Jan 15 13:54:32 2017.

 --------------------------------------------------------------------
 #N Geom=AllCheck Guess=TCheck SCRF=Check GenChk RB3LYP/6-31G(d) Freq
 --------------------------------------------------------------------

 Structure from the checkpoint file:  "/scratch/10462923.yak.local/Gau-9609.chk"
 ----------------------------------------------
 ./boats/4/glo_2w_beta_ts_boat4_B3LYP_631Gd.out
 ----------------------------------------------
 Charge =  0 Multiplicity = 1

                         Standard orientation:
 ---------------------------------------------------------------------
 Center     Atomic      Atomic             Coordinates (Angstroms)
 Number     Number       Type             X           Y           Z
 ---------------------------------------------------------------------
      1          8           0       -0.926491    1.207437   -1.575449
      2          6           0       -0.773913   -0.385148    0.255204
      3          6           0        1.398492   -1.778874    0.336047
      4          6           0        0.142718   -1.355515   -0.506563
      5          6           0        2.448051   -0.704190    0.228991
      6          6           0       -1.691221    0.392134   -0.716122
      7          1           0        0.460988   -0.899295   -1.447829
      8          1           0       -2.207850   -0.340502   -1.352430
      9          1           0       -0.152662    0.346816    0.793017
     10          1           0        3.224338   -0.898798   -0.537594
     11          6           0       -2.745685    1.242335    0.013398
     12          1           0       -2.259225    1.949636    0.692772
     13          1           0       -3.308353    1.824913   -0.725888
     14          1           0        1.092532   -1.886726    1.388479
     15          8           0        2.439241    0.326458    0.883823
     16          8           0       -3.631952    0.463140    0.840964
     17          1           0       -4.230148   -0.026478    0.253776
     18          8           0        1.941975   -2.969011   -0.185183
     19          1           0        1.176333   -3.433927   -0.577314
     20          8           0       -0.573893   -2.537811   -0.836323
     21          1           0       -1.183978   -2.655881   -0.077398
     22          8           0       -1.495912   -1.197598    1.184623
     23          1           0       -2.346568   -0.744668    1.366285
     24          8           0        3.069187    2.821723   -0.167083
     25          1           0        1.307845    3.065044   -0.099561
     26          1           0        3.097064    1.920796    0.220169
     27          1           0        3.546618    3.382524    0.462484
     28          8           0        0.338239    3.043395    0.100571
     29          1           0       -0.476262    1.893824   -1.023391
     30          1           0        0.305517    2.776409    1.031145
 ---------------------------------------------------------------------

 SCF Done:  E(RB3LYP) =  -839.998925266     A.U. after    1 cycles

 The electronic state is 1-A.
 Alpha  occ. eigenvalues --  -19.18387 -19.18229 -19.16275 -19.15967 -19.15490
 Alpha  occ. eigenvalues --  -19.14699 -19.14608 -19.13017 -10.29998 -10.25042
 Alpha  occ. eigenvalues --  -10.24918 -10.24521 -10.24403 -10.23969  -1.07646
 Alpha  occ. eigenvalues --   -1.05845  -1.04778  -1.02550  -1.01983  -1.01086
 Alpha  occ. eigenvalues --   -1.00731  -0.99676  -0.78218  -0.74905  -0.70445
 Alpha  occ. eigenvalues --   -0.64404  -0.61250  -0.59331  -0.55094  -0.54678
 Alpha  occ. eigenvalues --   -0.52630  -0.52285  -0.51842  -0.50182  -0.48918
 Alpha  occ. eigenvalues --   -0.48578  -0.47545  -0.45365  -0.44712  -0.42945
 Alpha  occ. eigenvalues --   -0.41555  -0.40886  -0.40683  -0.40199  -0.39146
 Alpha  occ. eigenvalues --   -0.37605  -0.37114  -0.35157  -0.34642  -0.32666
 Alpha  occ. eigenvalues --   -0.31578  -0.31191  -0.30783  -0.30003  -0.28339
 Alpha  occ. eigenvalues --   -0.27779  -0.26991  -0.25205
 Alpha virt. eigenvalues --   -0.05431   0.03990   0.04756   0.07581   0.08502
 Alpha virt. eigenvalues --    0.10426   0.12068   0.13334   0.13917   0.14643
 Alpha virt. eigenvalues --    0.15121   0.16357   0.17015   0.17631   0.18179

 Mulliken charges:
               1
     1  O   -0.665457
     2  C    0.100543
     3  C    0.077795
     4  C    0.087560
     5  C    0.250669
     6  C    0.091435
     7  H    0.174539
     8  H    0.131795
     9  H    0.123585
    10  H    0.150623
    11  C   -0.089483
    12  H    0.157813
    13  H    0.162656
    14  H    0.162099
    15  O   -0.426559
    16  O   -0.623668
    17  H    0.406198
    18  O   -0.656224
    19  H    0.417008
    20  O   -0.653812
    21  H    0.416717
    22  O   -0.693305
    23  H    0.430743
    24  O   -0.804772
    25  H    0.437134
    26  H    0.428029
    27  H    0.398960
    28  O   -0.825767
    29  H    0.442210
    30  H    0.390934
 Sum of Mulliken charges =  -0.00000

 Dipole moment (field-independent basis, Debye):
    X=             -0.8329    Y=              0.4632    Z=              2.2003  Tot=              2.3978
 Quadrupole moment (field-independent basis, Debye-Ang):
   XX=            -69.0568   YY=            -87.8780   ZZ=            -89.8807
   XY=              9.8267   XZ=              5.7512   YZ=              7.3943

  Exact polarizability: 108.019   4.638 103.682  -0.018   4.467  77.443
 Approx polarizability: 134.252  12.018 141.818  -1.002   9.988 122.293

                      1                      2                      3
                      A                      A                      A
 Frequencies --     28.3688                40.4085                53.6448
 Red. masses --      5.1602                 6.8650                 6.0185
 Frc consts  --      0.0024                 0.0066                 0.0102
 IR Inten    --      4.4918                 0.8617                 2.6129

                      4                      5                      6
                      A                      A                      A
 Frequencies --     64.6340                73.3428                84.4478
 Red. masses --      6.3239                 6.6800                 5.6089
 Frc consts  --      0.0156                 0.0212                 0.0236
 IR Inten    --      0.2213                 0.9630                 1.3144

                      7                      8                      9
                      A                      A                      A
 Frequencies --    106.5168               142.5891               152.9711
 Red. masses --      4.7613                 4.4728                 2.6760
 Frc consts  --      0.0318                 0.0536                 0.0369
 IR Inten    --     13.3201                 4.9094                 5.6584

                     10                     11                     12
                      A                      A                      A
 Frequencies --    186.3328               196.5075               220.7276
 Red. masses --      5.1782                 4.8146                 4.1958
 Frc consts  --      0.1059                 0.1095                 0.1204
 IR Inten    --      1.2873                13.6808                 2.3284

                     13                     14                     15
                      A                      A                      A
 Frequencies --    255.9852               276.7294               283.8555
 Red. masses --      4.9088                 1.2730                 4.0628
 Frc consts  --      0.1895                 0.0574                 0.1929
 IR Inten    --     10.2920               141.6486                 1.0339

                     16                     17                     18
                      A                      A                      A
 Frequencies --    290.9957               309.1067               328.2562
 Red. masses --      4.5803                 1.1803                 3.3865
 Frc consts  --      0.2285                 0.0664                 0.2150
 IR Inten    --     12.6466                93.3081                57.7461

                     19                     20                     21
                      A                      A                      A
 Frequencies --    351.2089               358.9457               366.1285
 Red. masses --      3.2666                 1.3490                 1.3227
 Frc consts  --      0.2374                 0.1024                 0.1045
 IR Inten    --      8.7542                76.7140                53.5383

                     22                     23                     24
                      A                      A                      A
 Frequencies --    389.8111               412.7791               427.9004
 Red. masses --      4.6509                 3.5403                 3.3615
 Frc consts  --      0.4164                 0.3554                 0.3626
 IR Inten    --      3.4819                70.5656                28.6848

                     25                     26                     27
                      A                      A                      A
 Frequencies --    448.7111               476.4006               495.8366
 Red. masses --      2.3023                 1.4668                 3.2388
 Frc consts  --      0.2731                 0.1961                 0.4692
 IR Inten    --      9.4921                61.0938                20.1028

                     28                     29                     30
                      A                      A                      A
 Frequencies --    533.7012               554.6123               623.1453
 Red. masses --      1.1719                 4.9553                 3.3406
 Frc consts  --      0.1967                 0.8981                 0.7643
 IR Inten    --     43.6727                 5.5074                 6.3039

                     31                     32                     33
                      A                      A                      A
 Frequencies --    673.7547               686.5738               706.9933
 Red. masses --      1.1476                 1.1971                 1.3404
 Frc consts  --      0.3069                 0.3325                 0.3947
 IR Inten    --     61.0801               126.5605               148.7390

                     34                     35                     36
                      A                      A                      A
 Frequencies --    750.8540               769.1651               876.4154
 Red. masses --      1.0574                 1.9451                 2.3594
 Frc consts  --      0.3512                 0.6780                 1.0678
 IR Inten    --    200.3882                16.7534                13.9895

                     37                     38                     39
                      A                      A                      A
 Frequencies --    879.5342               923.3427               957.2775
 Red. masses --      2.8373                 1.0651                 2.4243
 Frc consts  --      1.2932                 0.5350                 1.3089
 IR Inten    --      1.9530               267.0243                34.5282

                     40                     41                     42
                      A                      A                      A
 Frequencies --   1009.9538              1034.9338              1053.7444
 Red. masses --      2.6045                 2.8378                 3.5439
 Frc consts  --      1.5652                 1.7908                 2.3185
 IR Inten    --     61.8140                23.3179                70.1585

                     43                     44                     45
                      A                      A                      A
 Frequencies --   1072.6770              1102.6175              1115.1817
 Red. masses --      2.7511                 3.6883                 5.2107
 Frc consts  --      1.8651                 2.6420                 3.8180
 IR Inten    --     20.3470                34.0692               170.0623

                     46                     47                     48
                      A                      A                      A
 Frequencies --   1127.2225              1134.3568              1149.2364
 Red. masses --      2.9295                 2.7479                 3.7299
 Frc consts  --      2.1932                 2.0833                 2.9024
 IR Inten    --      5.3514                31.5460                40.6929

                     49                     50                     51
                      A                      A                      A
 Frequencies --   1194.4431              1236.9240              1269.8561
 Red. masses --      1.4337                 1.2238                 1.3144
 Frc consts  --      1.2052                 1.1032                 1.2487
 IR Inten    --     31.0489                 6.3516                30.7157

                     52                     53                     54
                      A                      A                      A
 Frequencies --   1297.3469              1336.3797              1346.9717
 Red. masses --      1.1969                 1.1612                 1.1775
 Frc consts  --      1.1869                 1.2218                 1.2587
 IR Inten    --     11.7140                33.9548                24.0732

                     55                     56                     57
                      A                      A                      A
 Frequencies --   1357.9032              1386.1378              1391.2321
 Red. masses --      1.2268                 1.2043                 1.2807
 Frc consts  --      1.3328                 1.3634                 1.4605
 IR Inten    --     17.3633                92.5812                15.2994

                     58                     59                     60
                      A                      A                      A
 Frequencies --   1402.9992              1408.6381              1430.8234
 Red. masses --      1.2912                 1.2261                 1.3105
 Frc consts  --      1.4975                 1.4334                 1.5807
 IR Inten    --     30.9652                21.9046                 7.9057

                     61                     62                     63
                      A                      A                      A
 Frequencies --   1441.2323              1471.8923              1487.5956
 Red. masses --      1.4582                 1.1774                 1.4286
 Frc consts  --      1.7845                 1.5029                 1.8626
 IR Inten    --     37.7087               105.9075                45.8746

                     64                     65                     66
                      A                      A                      A
 Frequencies --   1524.5281              1532.2477              1720.1944
 Red. masses --      1.1386                 1.1165                 1.0840
 Frc consts  --      1.5591                 1.5444                 1.8899
 IR Inten    --     37.9350                29.8519                92.3568

                     67                     68                     69
                      A                      A                      A
 Frequencies --   1747.3551              1793.1854              2980.0396
 Red. masses --      1.1049                 7.4755                 1.0870
 Frc consts  --      1.9876                14.1625                 5.6875
 IR Inten    --     85.8383               176.7046                59.5201

                     70                     71                     72
                      A                      A                      A
 Frequencies --   3015.7503              3024.9755              3042.4416
 Red. masses --      1.0831                 1.0826                 1.0862
 Frc consts  --      5.8037                 5.8366                 5.9238
 IR Inten    --     19.7351                 4.7449                63.3218

                     73                     74                     75
                      A                      A                      A
 Frequencies --   3063.7396              3111.6471              3121.5520
 Red. masses --      1.0613                 1.0868                 1.1065
 Frc consts  --      5.8695                 6.2001                 6.3525
 IR Inten    --     38.5842                 7.8869                32.2553

                     76                     77                     78
                      A                      A                      A
 Frequencies --   3380.7228              3444.8955              3544.3254
 Red. masses --      1.0656                 1.0630                 1.0669
 Frc consts  --      7.1754                 7.4328                 7.8965
 IR Inten    --    800.2585               279.9159               453.2316

                     79                     80                     81
                      A                      A                      A
 Frequencies --   3573.3757              3580.5718              3623.1964
 Red. masses --      1.0564                 1.0639                 1.0643
 Frc consts  --      7.9479                 8.0366                 8.2321
 IR Inten    --    583.4470                31.4433                73.6211

                     82                     83                     84
                      A                      A                      A
 Frequencies --   3738.6772              3798.0249              3805.0136
 Red. masses --      1.0663                 1.0673                 1.0713
 Frc consts  --      8.7811                 9.0708                 9.1385
 IR Inten    --     25.0974                34.0053                97.5353

 - Thermochemistry -
 -------------------
 Temperature   298.150 Kelvin.  Pressure   1.00000 Atm.
 Atom     1 has atomic number  8 and mass  15.99491

 Molecular mass:   216.08452 amu.
 Principal axes and moments of inertia in atomic units:
                           1         2         3
     Eigenvalues --  3033.966373600.769565757.66679
           X            0.99883   0.04826   0.00128
           Y           -0.04827   0.99882   0.00610
           Z           -0.00098  -0.00616   0.99998
 This molecule is an asymmetric top.
 Rotational symmetry number  1.
 Warning -- assumption of classical behavior for rotation
           may cause significant error
 Rotational temperatures (Kelvin)      0.02855     0.02405     0.01504
 Rotational constants (GHZ):           0.59485     0.50121     0.31345
 Zero-point vibrational energy     647091.6 (Joules/Mol)
                                  154.65861 (Kcal/Mol)
 Warning -- explicit consideration of  29 degrees of freedom as
           vibrations may cause significant error
 Vibrational temperatures:     40.82    58.14    77.18    92.99   105.52
          (Kelvin)            121.50   153.25   205.15   220.09   268.09
                              282.73   317.58   368.31   398.15   408.40
                              418.68   444.73   472.29   505.31   516.44
                              526.78   560.85   593.90   615.65   645.59
                              685.43   713.40   767.88   797.96   896.57
                              969.38   987.83  1017.20  1080.31  1106.66
                             1260.96  1265.45  1328.48  1377.31  1453.10
                             1489.04  1516.10  1543.34  1586.42  1604.50
                             1621.82  1632.08  1653.49  1718.54  1779.66
                             1827.04  1866.59  1922.75  1937.99  1953.72
                             1994.34  2001.67  2018.60  2026.71  2058.63
                             2073.61  2117.72  2140.32  2193.45  2204.56
                             2474.97  2514.05  2579.99  4287.61  4338.99
                             4352.26  4377.39  4408.03  4476.96  4491.21
                             4864.10  4956.43  5099.49  5141.28  5151.64
                             5212.96  5379.12  5464.50  5474.56

 Zero-point correction=                           0.246464 (Hartree/Particle)
 Thermal correction to Energy=                    0.264863
 Thermal correction to Enthalpy=                  0.265807
 Thermal correction to Gibbs Free Energy=         0.199600
 Sum of electronic and zero-point Energies=           -839.752461
 Sum of electronic and thermal Energies=              -839.734063
 Sum of electronic and thermal Enthalpies=            -839.733119
 Sum of electronic and thermal Free Energies=         -839.799325

                     E (Thermal)             CV                S
                      KCal/Mol        Cal/Mol-Kelvin    Cal/Mol-Kelvin
 Total                  166.204             66.096            139.343
 Electronic               0.000              0.000              0.000
 Translational            0.889              2.981             42.015
 Rotational               0.889              2.981             32.509
 Vibrational            164.426             60.134             64.820
 Vibration     1          0.593              1.984              5.940
 Vibration     2          0.594              1.981              5.239
 Vibration     3          0.596              1.976              4.678
 Vibration     4          0.597              1.971              4.310
 Vibration     5          0.599              1.967              4.062
 Vibration     6          0.601              1.960              3.785
 Vibration     7          0.605              1.944              3.331
 Vibration     8          0.616              1.911              2.769
 Vibration     9          0.619              1.899              2.635
 Vibration    10          0.632              1.859              2.264
 Vibration    11          0.636              1.845              2.166
 Vibration    12          0.647              1.810              1.953
 Vibration    13          0.666              1.753              1.689
 Vibration    14          0.678              1.716              1.554
 Vibration    15          0.682              1.704              1.510
 Vibration    16          0.687              1.690              1.468
 Vibration    17          0.698              1.656              1.367
 Vibration    18          0.711              1.619              1.269
 Vibration    19          0.728              1.573              1.161
 Vibration    20          0.734              1.557              1.127
 Vibration    21          0.739              1.542              1.096
 Vibration    22          0.758              1.492              1.001
 Vibration    23          0.777              1.442              0.917
 Vibration    24          0.789              1.410              0.866
 Vibration    25          0.808              1.364              0.800
 Vibration    26          0.833              1.302              0.720
 Vibration    27          0.851              1.259              0.669
 Vibration    28          0.889              1.175              0.579
 Vibration    29          0.910              1.130              0.535

 Normal termination of Gaussian 09 at Sun Jan 15 14:11:06 2017.
