 Gaussian 09, Revision E.01,
 Gaussian 09:  ES64L-G09RevE.01 30-Nov-2015

 ----------------------------------------------------------------------
 # opt=(calcfc,ts,noeigentest,maxcycle=1000,cartesian) b3lyp 6-31g(d) f
 req
 ----------------------------------------------------------------------

 ------------------------------------------
 ./6/glo_1w_beta_boat6_B3LYP_631Gd_iopt.out
 ------------------------------------------
 Symbolic Z-matrix:
 Charge =  0 Multiplicity = 1

 SCF Done:  E(RB3LYP) =  -839.990798024     A.U. after   13 cycles
 Optimization completed.
    -- Stationary point found.
 Normal termination of Gaussian 09 at Tue Jan 31 07:23:28 2017.

 --------------------------------------------------------------------
 #N Geom=AllCheck Guess=TCheck SCRF=Check GenChk RB3LYP/6-31G(d) Freq
 --------------------------------------------------------------------

 Structure from the checkpoint file:  "/scratch/10501399.yak.local/Gau-8096.chk"
 ------------------------------------------
 ./6/glo_1w_beta_boat6_B3LYP_631Gd_iopt.out
 ------------------------------------------
 Charge =  0 Multiplicity = 1

                         Standard orientation:
 ---------------------------------------------------------------------
 Center     Atomic      Atomic             Coordinates (Angstroms)
 Number     Number       Type             X           Y           Z
 ---------------------------------------------------------------------
      1          6           0        0.248892    1.028410   -0.574340
      2          6           0       -1.396300   -0.864698   -0.067240
      3          6           0       -1.229828    0.655362   -0.345940
      4          6           0       -0.380891   -1.647639   -0.910230
      5          1           0       -0.502922   -2.724839   -0.750330
      6          1           0       -2.415010   -1.143747   -0.364080
      7          1           0        0.450172    1.040730   -1.653720
      8          1           0       -1.658208    1.196832    0.505060
      9          6           0        1.032919   -1.275941   -0.415300
     10          1           0        1.759629   -1.390872   -1.233050
     11          8           0        1.095911    0.077999    0.068080
     12          6           0        0.595594    2.387160    0.006600
     13          1           0       -0.091335    3.129440   -0.427910
     14          1           0        0.431574    2.359290    1.095310
     15          8           0        1.953484    2.672308   -0.305590
     16          1           0        2.171225    3.535998    0.075710
     17          8           0        1.338228   -2.086081    0.683970
     18          8           0       -0.524701   -1.374949   -2.296030
     19          1           0       -1.092320   -0.588788   -2.402690
     20          8           0       -1.274840   -1.175818    1.316130
     21          1           0       -0.342171   -1.410839    1.499270
     22          8           0       -1.915018    1.013273   -1.560920
     23          1           0       -2.867928    1.007484   -1.372940
     24          8           0        3.496260   -0.457174    1.273070
     25          1           0        2.200919   -1.752722    1.034960
     26          1           0        4.250250   -0.486545    0.664820
     27          1           0        2.883981    0.196957    0.878440
     28          8           0       -3.261178    0.625174    2.207090
     29          1           0       -3.071608    1.066084    3.048230
     30          1           0       -2.593749   -0.088227    2.155270
 ---------------------------------------------------------------------

 SCF Done:  E(RB3LYP) =  -839.990798024     A.U. after    1 cycles

 The electronic state is 1-A.
 Alpha  occ. eigenvalues --  -19.17530 -19.16754 -19.16024 -19.15708 -19.15560
 Alpha  occ. eigenvalues --  -19.15546 -19.14207 -19.12293 -10.28846 -10.24990
 Alpha  occ. eigenvalues --  -10.24732 -10.24621 -10.24609 -10.24054  -1.08214
 Alpha  occ. eigenvalues --   -1.04590  -1.03369  -1.02595  -1.01539  -1.01269
 Alpha  occ. eigenvalues --   -1.00582  -0.98123  -0.78806  -0.76501  -0.70100
 Alpha  occ. eigenvalues --   -0.65182  -0.63036  -0.57539  -0.56063  -0.55269
 Alpha  occ. eigenvalues --   -0.53309  -0.52781  -0.52086  -0.50422  -0.49768
 Alpha  occ. eigenvalues --   -0.48355  -0.46611  -0.45334  -0.42904  -0.42185
 Alpha  occ. eigenvalues --   -0.41337  -0.40273  -0.40006  -0.39564  -0.37996
 Alpha  occ. eigenvalues --   -0.36752  -0.36023  -0.35570  -0.34266  -0.32737
 Alpha  occ. eigenvalues --   -0.31493  -0.31188  -0.29670  -0.28666  -0.28314
 Alpha  occ. eigenvalues --   -0.27572  -0.26213  -0.25816
 Alpha virt. eigenvalues --    0.04701   0.05694   0.06805   0.07746   0.09952
 Alpha virt. eigenvalues --    0.10156   0.12365   0.13085   0.13544   0.14643
 Alpha virt. eigenvalues --    0.14994   0.15635   0.16871   0.17603   0.18698

 Mulliken charges:
               1
     1  C    0.157037
     2  C    0.096855
     3  C    0.025149
     4  C    0.088200
     5  H    0.163438
     6  H    0.143795
     7  H    0.159623
     8  H    0.167903
     9  C    0.316766
    10  H    0.138914
    11  O   -0.541088
    12  C   -0.057697
    13  H    0.143169
    14  H    0.133332
    15  O   -0.621908
    16  H    0.399724
    17  O   -0.654758
    18  O   -0.663443
    19  H    0.422492
    20  O   -0.668579
    21  H    0.429436
    22  O   -0.640354
    23  H    0.412975
    24  O   -0.800491
    25  H    0.436738
    26  H    0.399826
    27  H    0.429325
    28  O   -0.819419
    29  H    0.380562
    30  H    0.422476
 Sum of Mulliken charges =  -0.00000

 Dipole moment (field-independent basis, Debye):
    X=              1.3500    Y=              3.4548    Z=              0.5113  Tot=              3.7443
 Quadrupole moment (field-independent basis, Debye-Ang):
   XX=            -80.1221   YY=            -78.1550   ZZ=            -87.3796
   XY=              0.7927   XZ=              0.7852   YZ=              3.7561

  Exact polarizability: 101.416  -2.469  94.651   1.301   1.291  86.542
 Approx polarizability: 131.283  -5.922 124.055   2.110  -1.777 127.506

 ******    1 imaginary frequencies (negative Signs) ******

                      1                      2                      3
                      A                      A                      A
 Frequencies --    -21.0597                45.7727                66.2313
 Red. masses --      5.4319                 5.7968                 6.3301
 Frc consts  --      0.0014                 0.0072                 0.0164
 IR Inten    --      3.8388                 2.2963                 3.8276

                      4                      5                      6
                      A                      A                      A
 Frequencies --     86.3132                93.2852               106.0092
 Red. masses --      6.9927                 5.9330                 5.9979
 Frc consts  --      0.0307                 0.0304                 0.0397
 IR Inten    --     17.9428                 8.0320                 7.8810

                      7                      8                      9
                      A                      A                      A
 Frequencies --    130.9950               141.9809               154.9008
 Red. masses --      1.1939                 3.9547                 4.1127
 Frc consts  --      0.0121                 0.0470                 0.0581
 IR Inten    --     86.5752                13.7858                 4.6593

                     10                     11                     12
                      A                      A                      A
 Frequencies --    170.8268               197.4904               215.7622
 Red. masses --      6.1616                 4.3306                 4.2633
 Frc consts  --      0.1059                 0.0995                 0.1169
 IR Inten    --      7.3931                 1.1598                16.7217

                     13                     14                     15
                      A                      A                      A
 Frequencies --    236.9458               261.0269               274.3467
 Red. masses --      5.5401                 1.3556                 2.8921
 Frc consts  --      0.1833                 0.0544                 0.1283
 IR Inten    --      4.1188                94.1542                17.6379

                     16                     17                     18
                      A                      A                      A
 Frequencies --    298.8455               305.0898               341.2829
 Red. masses --      3.6484                 1.1547                 1.1609
 Frc consts  --      0.1920                 0.0633                 0.0797
 IR Inten    --     27.3425               102.2407                21.7523

                     19                     20                     21
                      A                      A                      A
 Frequencies --    354.3799               367.2748               373.6922
 Red. masses --      2.4488                 1.7569                 1.9069
 Frc consts  --      0.1812                 0.1396                 0.1569
 IR Inten    --     45.1825                14.7656                50.1256

                     22                     23                     24
                      A                      A                      A
 Frequencies --    391.0592               440.4095               456.5879
 Red. masses --      1.4199                 3.4720                 3.2644
 Frc consts  --      0.1279                 0.3968                 0.4010
 IR Inten    --     54.3971                 7.9917                17.8331

                     25                     26                     27
                      A                      A                      A
 Frequencies --    475.8091               488.5693               526.3357
 Red. masses --      4.4694                 1.6051                 2.8556
 Frc consts  --      0.5962                 0.2257                 0.4661
 IR Inten    --      6.6739                62.7326                25.3698

                     28                     29                     30
                      A                      A                      A
 Frequencies --    549.1646               567.9536               601.3617
 Red. masses --      3.2221                 1.6379                 2.7806
 Frc consts  --      0.5725                 0.3113                 0.5925
 IR Inten    --     11.3090                45.6224                58.9782

                     31                     32                     33
                      A                      A                      A
 Frequencies --    628.1563               632.0606               665.9092
 Red. masses --      1.1321                 3.0224                 1.1359
 Frc consts  --      0.2632                 0.7114                 0.2968
 IR Inten    --    266.4293                44.2412               299.8452

                     34                     35                     36
                      A                      A                      A
 Frequencies --    836.8319               851.8665               894.4882
 Red. masses --      4.0629                 1.9476                 1.6132
 Frc consts  --      1.6763                 0.8327                 0.7605
 IR Inten    --     47.1868                24.0395                99.4448

                     37                     38                     39
                      A                      A                      A
 Frequencies --    904.8283               957.7829              1014.4696
 Red. masses --      2.0196                 3.0770                 2.5199
 Frc consts  --      0.9742                 1.6631                 1.5280
 IR Inten    --     45.1802                58.5878                61.6280

                     40                     41                     42
                      A                      A                      A
 Frequencies --   1059.2226              1063.7707              1081.8836
 Red. masses --      6.0781                 2.5817                 4.9488
 Frc consts  --      4.0178                 1.7213                 3.4128
 IR Inten    --     55.4328                19.0354                89.5992

                     43                     44                     45
                      A                      A                      A
 Frequencies --   1095.3258              1106.2961              1118.9764
 Red. masses --      4.5330                 4.0457                 3.7357
 Frc consts  --      3.2042                 2.9173                 2.7559
 IR Inten    --     49.7595               233.8758                21.7015

                     46                     47                     48
                      A                      A                      A
 Frequencies --   1126.6150              1143.0255              1159.7914
 Red. masses --      2.3446                 3.4181                 2.6317
 Frc consts  --      1.7533                 2.6311                 2.0857
 IR Inten    --      2.3138                10.7222                58.0100

                     49                     50                     51
                      A                      A                      A
 Frequencies --   1222.7033              1251.2884              1271.4741
 Red. masses --      1.1596                 1.4465                 1.1886
 Frc consts  --      1.0214                 1.3344                 1.1321
 IR Inten    --     49.3540                24.2220                55.3424

                     52                     53                     54
                      A                      A                      A
 Frequencies --   1295.1163              1301.9856              1322.0685
 Red. masses --      1.2259                 1.1382                 1.1895
 Frc consts  --      1.2115                 1.1368                 1.2249
 IR Inten    --     32.8980                27.3532                42.6877

                     55                     56                     57
                      A                      A                      A
 Frequencies --   1343.7289              1360.5614              1366.1398
 Red. masses --      1.2408                 1.2797                 1.2904
 Frc consts  --      1.3200                 1.3957                 1.4189
 IR Inten    --     10.8596                 1.4855                 7.6525

                     58                     59                     60
                      A                      A                      A
 Frequencies --   1373.7778              1398.6572              1423.2027
 Red. masses --      1.1869                 1.3858                 1.3149
 Frc consts  --      1.3197                 1.5972                 1.5692
 IR Inten    --     20.3112                12.8900                 7.0499

                     61                     62                     63
                      A                      A                      A
 Frequencies --   1462.4054              1476.6259              1485.5897
 Red. masses --      1.4342                 1.2420                 1.5458
 Frc consts  --      1.8072                 1.5956                 2.0100
 IR Inten    --      3.6264               112.3198                21.2255

                     64                     65                     66
                      A                      A                      A
 Frequencies --   1498.1382              1520.8387              1538.8746
 Red. masses --      1.2740                 1.4080                 1.0882
 Frc consts  --      1.6846                 1.9188                 1.5183
 IR Inten    --     42.8972                68.4519                 6.8968

                     67                     68                     69
                      A                      A                      A
 Frequencies --   1717.2110              1747.4608              3002.1444
 Red. masses --      1.0784                 1.0747                 1.0564
 Frc consts  --      1.8736                 1.9336                 5.6098
 IR Inten    --     50.5627                58.7781                39.4070

                     70                     71                     72
                      A                      A                      A
 Frequencies --   3027.8069              3038.3462              3054.9799
 Red. masses --      1.0859                 1.0998                 1.0894
 Frc consts  --      5.8656                 5.9820                 5.9906
 IR Inten    --     60.0297                18.9984                27.8423

                     73                     74                     75
                      A                      A                      A
 Frequencies --   3058.8838              3078.8517              3081.6497
 Red. masses --      1.0885                 1.0865                 1.0877
 Frc consts  --      6.0005                 6.0682                 6.0858
 IR Inten    --     58.4814                14.9525                24.5289

                     76                     77                     78
                      A                      A                      A
 Frequencies --   3425.4798              3585.9289              3615.4843
 Red. masses --      1.0662                 1.0657                 1.0560
 Frc consts  --      7.3713                 8.0744                 8.1333
 IR Inten    --    486.1044               294.5417               112.5663

                     79                     80                     81
                      A                      A                      A
 Frequencies --   3621.0858              3639.8042              3736.1697
 Red. masses --      1.0540                 1.0677                 1.0662
 Frc consts  --      8.1426                 8.3338                 8.7691
 IR Inten    --    270.5930               160.6623                30.0531

                     82                     83                     84
                      A                      A                      A
 Frequencies --   3759.9424              3805.5484              3806.3788
 Red. masses --      1.0665                 1.0733                 1.0730
 Frc consts  --      8.8833                 9.1582                 9.1592
 IR Inten    --     21.2361                93.1115                47.6693

 - Thermochemistry -
 -------------------
 Temperature   298.150 Kelvin.  Pressure   1.00000 Atm.
 Atom     1 has atomic number  6 and mass  12.00000

 Molecular mass:   216.08452 amu.
 Principal axes and moments of inertia in atomic units:
                           1         2         3
     Eigenvalues --  2760.672963619.006244135.78503
           X            0.99995  -0.00629  -0.00807
           Y            0.00649   0.99967   0.02496
           Z            0.00791  -0.02501   0.99966
 This molecule is an asymmetric top.
 Rotational symmetry number  1.
 Warning -- assumption of classical behavior for rotation
           may cause significant error
 Rotational temperatures (Kelvin)      0.03137     0.02393     0.02094
 Rotational constants (GHZ):           0.65373     0.49868     0.43637
    1 imaginary frequencies ignored.
 Zero-point vibrational energy     650633.0 (Joules/Mol)
                                  155.50501 (Kcal/Mol)
 Warning -- explicit consideration of  29 degrees of freedom as
           vibrations may cause significant error
 Vibrational temperatures:     65.86    95.29   124.19   134.22   152.52
          (Kelvin)            188.47   204.28   222.87   245.78   284.14
                              310.43   340.91   375.56   394.72   429.97
                              438.96   491.03   509.87   528.43   537.66
                              562.65   633.65   656.93   684.58   702.94
                              757.28   790.12   817.16   865.22   903.78
                              909.39   958.09  1204.01  1225.64  1286.97
                             1301.84  1378.03  1459.59  1523.98  1530.53
                             1556.59  1575.93  1591.71  1609.96  1620.95
                             1644.56  1668.68  1759.20  1800.32  1829.37
                             1863.38  1873.26  1902.16  1933.32  1957.54
                             1965.57  1976.56  2012.35  2047.67  2104.07
                             2124.53  2137.43  2155.48  2188.14  2214.09
                             2470.68  2514.20  4319.41  4356.33  4371.50
                             4395.43  4401.05  4429.78  4433.80  4928.50
                             5159.35  5201.87  5209.93  5236.86  5375.51
                             5409.71  5475.33  5476.52

 Zero-point correction=                           0.247813 (Hartree/Particle)
 Thermal correction to Energy=                    0.265041
 Thermal correction to Enthalpy=                  0.265986
 Thermal correction to Gibbs Free Energy=         0.204069
 Sum of electronic and zero-point Energies=           -839.742985
 Sum of electronic and thermal Energies=              -839.725757
 Sum of electronic and thermal Enthalpies=            -839.724812
 Sum of electronic and thermal Free Energies=         -839.786729

                     E (Thermal)             CV                S
                      KCal/Mol        Cal/Mol-Kelvin    Cal/Mol-Kelvin
 Total                  166.316             63.549            130.314
 Electronic               0.000              0.000              0.000
 Translational            0.889              2.981             42.015
 Rotational               0.889              2.981             32.091
 Vibrational            164.539             57.587             56.208
 Vibration     1          0.595              1.979              4.992
 Vibration     2          0.598              1.970              4.262
 Vibration     3          0.601              1.959              3.742
 Vibration     4          0.602              1.954              3.590
 Vibration     5          0.605              1.944              3.341
 Vibration     6          0.612              1.922              2.931
 Vibration     7          0.615              1.911              2.777
 Vibration     8          0.620              1.897              2.611
 Vibration     9          0.626              1.878              2.426
 Vibration    10          0.637              1.843              2.156
 Vibration    11          0.645              1.817              1.994
 Vibration    12          0.656              1.784              1.826
 Vibration    13          0.669              1.744              1.655
 Vibration    14          0.677              1.721              1.569
 Vibration    15          0.692              1.676              1.423
 Vibration    16          0.696              1.664              1.389
 Vibration    17          0.721              1.593              1.206
 Vibration    18          0.730              1.566              1.147
 Vibration    19          0.740              1.540              1.091
 Vibration    20          0.745              1.526              1.065
 Vibration    21          0.759              1.489              0.996
 Vibration    22          0.800              1.382              0.825
 Vibration    23          0.815              1.346              0.776
 Vibration    24          0.832              1.304              0.721
 Vibration    25          0.844              1.275              0.687
 Vibration    26          0.881              1.192              0.595
 Vibration    27          0.904              1.142              0.546
 Vibration    28          0.924              1.101              0.508
 Vibration    29          0.960              1.029              0.447

 Optimization completed.
    -- Stationary point found.
 Normal termination of Gaussian 09 at Tue Jan 31 07:41:49 2017.
