 Gaussian 09, Revision E.01,
 Gaussian 09:  ES64L-G09RevE.01 30-Nov-2015

 ---------------------------------------------------------------
 # IRC=(CalcFC,Reverse,MaxCycle=500,MaxPoints=10) B3LYP/6-31G(d)
 ---------------------------------------------------------------

 -------------------------------------
 glo_2w_beta_ts_chair2_B3LYP_631Gd.out
 -------------------------------------
 Symbolic Z-matrix:
 Charge =  0 Multiplicity = 1

 SCF Done:  E(RB3LYP) =  -839.970321962     A.U. after   14 cycles
 SCF Done:  E(RB3LYP) =  -839.970545681     A.U. after   11 cycles
 SCF Done:  E(RB3LYP) =  -839.971273543     A.U. after   11 cycles
 SCF Done:  E(RB3LYP) =  -839.971290478     A.U. after   10 cycles
 SCF Done:  E(RB3LYP) =  -839.972608343     A.U. after   11 cycles
 SCF Done:  E(RB3LYP) =  -839.974563550     A.U. after   11 cycles
 SCF Done:  E(RB3LYP) =  -839.977102249     A.U. after   11 cycles
 SCF Done:  E(RB3LYP) =  -839.980094308     A.U. after   11 cycles
 SCF Done:  E(RB3LYP) =  -839.983291628     A.U. after   11 cycles
 SCF Done:  E(RB3LYP) =  -839.986314675     A.U. after   12 cycles
 SCF Done:  E(RB3LYP) =  -839.988713498     A.U. after   11 cycles
 SCF Done:  E(RB3LYP) =  -839.990413502     A.U. after   11 cycles

                          Input orientation:
 ---------------------------------------------------------------------
 Center     Atomic      Atomic             Coordinates (Angstroms)
 Number     Number       Type             X           Y           Z
 ---------------------------------------------------------------------
      1          6           0        0.499525   -1.223948    0.248133
      2          8           0        0.477069   -0.349507   -0.983970
      3          6           0       -0.961469   -1.538085    0.615111
      4          6           0       -1.739717   -0.219727    0.795623
      5          6           0       -1.714519    0.627379   -0.496599
      6          6           0       -0.275300    0.906266   -0.954297
      7          1           0       -0.962707   -2.089950    1.565517
      8          1           0       -2.183587    1.590973   -0.285604
      9          1           0       -0.346480    1.182936   -2.010402
     10          1           0       -2.783998   -0.452817    1.026550
     11          8           0       -1.616378   -2.296871   -0.404536
     12          8           0       -1.194245    0.509930    1.899897
     13          8           0       -2.480815    0.029361   -1.527965
     14          1           0       -0.260385    0.230568    2.007812
     15          1           0       -1.058217   -3.056078   -0.636511
     16          1           0       -2.219820   -0.908799   -1.561342
     17          6           0        0.478135    2.022033   -0.155840
     18          8           0       -0.376992    2.889288    0.560691
     19          1           0        1.028379    2.657281   -0.859536
     20          1           0        1.212619    1.549318    0.504348
     21          1           0       -0.775932    2.339397    1.264916
     22          8           0        1.155232   -0.687146    1.317299
     23          1           0        2.173523   -0.599911    1.145413
     24          1           0        1.007194   -2.112816   -0.159269
     25          1           0        1.853320   -0.147358   -1.454145
     26          8           0        3.523448   -0.420649    0.731389
     27          1           0        4.037786   -1.230708    0.862369
     28          8           0        2.848400   -0.073214   -1.585643
     29          1           0        3.033467    0.833428   -1.870862
     30          1           0        3.390181   -0.290134   -0.271335
 ---------------------------------------------------------------------

 Alpha  occ. eigenvalues --  -19.18637 -19.18361 -19.16098 -19.16093 -19.15781
 Alpha  occ. eigenvalues --  -19.15606 -19.13003 -19.12912 -10.31487 -10.26449
 Alpha  occ. eigenvalues --  -10.24831 -10.24393 -10.23189 -10.22982  -1.08517
 Alpha  occ. eigenvalues --   -1.05556  -1.03624  -1.02919  -1.02714  -1.00692
 Alpha  occ. eigenvalues --   -1.00475  -0.99348  -0.78035  -0.76957  -0.69327
 Alpha  occ. eigenvalues --   -0.66260  -0.63950  -0.58178  -0.57041  -0.55926
 Alpha  occ. eigenvalues --   -0.55663  -0.54137  -0.52524  -0.51124  -0.48831
 Alpha  occ. eigenvalues --   -0.48375  -0.46600  -0.45553  -0.44746  -0.43345
 Alpha  occ. eigenvalues --   -0.42219  -0.42183  -0.40828  -0.39019  -0.38483
 Alpha  occ. eigenvalues --   -0.37801  -0.36631  -0.35519  -0.33625  -0.32587
 Alpha  occ. eigenvalues --   -0.32022  -0.31107  -0.30538  -0.30295  -0.29259
 Alpha  occ. eigenvalues --   -0.28475  -0.25809  -0.24514
 Alpha virt. eigenvalues --    0.03673   0.04286   0.06438   0.07956   0.08562
 Alpha virt. eigenvalues --    0.11609   0.12011   0.12510   0.14023   0.15598
 Alpha virt. eigenvalues --    0.15962   0.16915   0.18133   0.18559   0.19749

 Mulliken charges:
               1
     1  C    0.299993
     2  O   -0.587476
     3  C    0.083312
     4  C    0.098370
     5  C    0.103120
     6  C    0.079141
     7  H    0.156452
     8  H    0.166226
     9  H    0.163632
    10  H    0.163676
    11  O   -0.633725
    12  O   -0.676277
    13  O   -0.652865
    14  H    0.443631
    15  H    0.405890
    16  H    0.419789
    17  C   -0.070441
    18  O   -0.632771
    19  H    0.131518
    20  H    0.143812
    21  H    0.417193
    22  O   -0.664813
    23  H    0.466250
    24  H    0.123424
    25  H    0.469879
    26  O   -0.832111
    27  H    0.400381
    28  O   -0.842132
    29  H    0.405947
    30  H    0.450974
 Sum of Mulliken charges =  -0.00000

 Dipole moment (field-independent basis, Debye):
    X=              3.5742    Y=             -4.3069    Z=             -0.6383  Tot=              5.6331
 Quadrupole moment (field-independent basis, Debye-Ang):
   XX=            -85.7822   YY=            -79.8416   ZZ=            -88.3070
   XY=              0.1029   XZ=             -4.3196   YZ=             -5.0933

  Exact polarizability:   0.000   0.000   0.000   0.000   0.000   0.000
 Approx polarizability: 129.745  -3.174 131.118   3.048  -0.099 127.967

 Normal termination of Gaussian 09 at Sun Jan  8 16:21:43 2017.
