 Gaussian 09, Revision E.01,
 Gaussian 09:  ES64L-G09RevE.01 30-Nov-2015

 ----------------------------------------------------------------
 # IRC=(CalcFC,Forward,MaxCycle=1000,MaxPoints=10) B3LYP/6-31G(d)
 ----------------------------------------------------------------

 --------------------------------------
 glo_1w_alpha_ts_chair2_B3LYP_631Gd.out
 --------------------------------------
 Symbolic Z-matrix:
 Charge =  0 Multiplicity = 1

 SCF Done:  E(RB3LYP) =  -839.962247059     A.U. after   14 cycles
 SCF Done:  E(RB3LYP) =  -839.962596398     A.U. after   11 cycles
 SCF Done:  E(RB3LYP) =  -839.963742556     A.U. after   11 cycles
 SCF Done:  E(RB3LYP) =  -839.965747408     A.U. after   11 cycles
 SCF Done:  E(RB3LYP) =  -839.968536909     A.U. after   11 cycles
 SCF Done:  E(RB3LYP) =  -839.971914126     A.U. after   11 cycles
 SCF Done:  E(RB3LYP) =  -839.975548955     A.U. after   12 cycles
 SCF Done:  E(RB3LYP) =  -839.978982171     A.U. after   12 cycles
 SCF Done:  E(RB3LYP) =  -839.981766733     A.U. after   11 cycles
 SCF Done:  E(RB3LYP) =  -839.983903946     A.U. after   11 cycles
 SCF Done:  E(RB3LYP) =  -839.985704414     A.U. after   11 cycles

                          Input orientation:
 ---------------------------------------------------------------------
 Center     Atomic      Atomic             Coordinates (Angstroms)
 Number     Number       Type             X           Y           Z
 ---------------------------------------------------------------------
      1          6           0       -1.423110   -0.057119   -0.892721
      2          8           0       -1.039543    0.792538    0.346991
      3          6           0       -0.969964   -1.484679   -0.583910
      4          6           0        0.502497   -1.538083   -0.122449
      5          6           0        0.809349   -0.563140    1.033667
      6          6           0        0.340968    0.872591    0.762476
      7          1           0       -1.075390   -2.092771   -1.500735
      8          1           0        1.888033   -0.556656    1.218388
      9          1           0        0.320940    1.379018    1.733316
     10          1           0        0.710916   -2.548058    0.251397
     11          8           0       -1.802106   -2.002433    0.442438
     12          8           0        1.357184   -1.239635   -1.244826
     13          8           0        0.200633   -1.072429    2.210826
     14          1           0        1.237328   -1.938983   -1.907504
     15          1           0       -2.660709   -1.555214    0.296719
     16          1           0       -0.714852   -1.309458    1.967792
     17          6           0        1.196212    1.736099   -0.186019
     18          8           0        2.462560    1.998488    0.378142
     19          1           0        0.677735    2.694427   -0.319004
     20          1           0        1.278344    1.267969   -1.176157
     21          1           0        3.071062    1.281902    0.092451
     22          1           0       -0.888966    0.381805   -1.744525
     23          8           0       -2.779453    0.004654   -0.991476
     24          1           0       -3.025374    0.978966   -0.827540
     25          1           0       -1.971366    1.948313    0.206952
     26          8           0       -2.804681    2.309750   -0.210492
     27          1           0       -3.435831    2.419101    0.516795
     28          8           0        3.888754   -0.135096   -0.706985
     29          1           0        4.258358    0.205179   -1.535621
     30          1           0        3.097903   -0.650230   -0.970590
 ---------------------------------------------------------------------

 Alpha  occ. eigenvalues --  -19.19842 -19.17216 -19.16866 -19.15733 -19.15540
 Alpha  occ. eigenvalues --  -19.15317 -19.13359 -19.11832 -10.30601 -10.26398
 Alpha  occ. eigenvalues --  -10.26189 -10.24087 -10.23625 -10.22323  -1.08564
 Alpha  occ. eigenvalues --   -1.06493  -1.04043  -1.02100  -1.01646  -1.01009
 Alpha  occ. eigenvalues --   -1.00025  -0.99168  -0.78626  -0.76119  -0.69676
 Alpha  occ. eigenvalues --   -0.65597  -0.63495  -0.58157  -0.55493  -0.55088
 Alpha  occ. eigenvalues --   -0.54673  -0.53535  -0.52525  -0.51125  -0.50621
 Alpha  occ. eigenvalues --   -0.48867  -0.46388  -0.46217  -0.44046  -0.42685
 Alpha  occ. eigenvalues --   -0.42052  -0.41898  -0.40305  -0.39698  -0.38437
 Alpha  occ. eigenvalues --   -0.37157  -0.36502  -0.34211  -0.33397  -0.33068
 Alpha  occ. eigenvalues --   -0.32089  -0.31568  -0.29817  -0.29387  -0.28868
 Alpha  occ. eigenvalues --   -0.28612  -0.26589  -0.24071
 Alpha virt. eigenvalues --    0.02134   0.05976   0.06724   0.08348   0.08551
 Alpha virt. eigenvalues --    0.11229   0.11959   0.12116   0.13013   0.14724
 Alpha virt. eigenvalues --    0.15349   0.16055   0.17639   0.17875   0.18926

 Mulliken charges:
               1
     1  C    0.344464
     2  O   -0.610033
     3  C    0.103726
     4  C    0.066290
     5  C    0.106740
     6  C    0.119396
     7  H    0.124534
     8  H    0.160692
     9  H    0.167213
    10  H    0.165541
    11  O   -0.648389
    12  O   -0.648240
    13  O   -0.648646
    14  H    0.410028
    15  H    0.421930
    16  H    0.417364
    17  C   -0.068672
    18  O   -0.656415
    19  H    0.141720
    20  H    0.120819
    21  H    0.433659
    22  H    0.141939
    23  O   -0.667600
    24  H    0.448395
    25  H    0.448255
    26  O   -0.814809
    27  H    0.399313
    28  O   -0.807768
    29  H    0.397496
    30  H    0.431057
 Sum of Mulliken charges =  -0.00000

 Dipole moment (field-independent basis, Debye):
    X=             -1.1931    Y=             -1.8624    Z=             -3.8653  Tot=              4.4534
 Quadrupole moment (field-independent basis, Debye-Ang):
   XX=            -83.3104   YY=            -87.0579   ZZ=            -82.2441
   XY=             -7.5565   XZ=            -16.3740   YZ=              8.3561

  Exact polarizability:   0.000   0.000   0.000   0.000   0.000   0.000
 Approx polarizability: 139.643   2.689 123.515  -0.294   5.611 129.009

 Normal termination of Gaussian 09 at Sun Jan  8 15:48:27 2017.
