 Gaussian 09, Revision E.01,
 Gaussian 09:  ES64L-G09RevE.01 30-Nov-2015

 ----------------------------------------------------------------
 # IRC=(CalcFC,Forward,MaxCycle=1000,MaxPoints=10) B3LYP/6-31G(d)
 ----------------------------------------------------------------

 -------------------------------------
 glo_1w_beta_ts_chair2_B3LYP_631Gd.out
 -------------------------------------
 Symbolic Z-matrix:
 Charge =  0 Multiplicity = 1

 SCF Done:  E(RB3LYP) =  -839.963779356     A.U. after   14 cycles
 SCF Done:  E(RB3LYP) =  -839.964094045     A.U. after   11 cycles
 SCF Done:  E(RB3LYP) =  -839.964830861     A.U. after   11 cycles
 SCF Done:  E(RB3LYP) =  -839.965707250     A.U. after   11 cycles
 SCF Done:  E(RB3LYP) =  -839.966580305     A.U. after   11 cycles
 SCF Done:  E(RB3LYP) =  -839.967423192     A.U. after   11 cycles
 SCF Done:  E(RB3LYP) =  -839.968235385     A.U. after   11 cycles
 SCF Done:  E(RB3LYP) =  -839.969010854     A.U. after   11 cycles
 SCF Done:  E(RB3LYP) =  -839.969024078     A.U. after   10 cycles
 SCF Done:  E(RB3LYP) =  -839.969788142     A.U. after   11 cycles
 SCF Done:  E(RB3LYP) =  -839.970538447     A.U. after   11 cycles
 SCF Done:  E(RB3LYP) =  -839.971245867     A.U. after   11 cycles
 SCF Done:  E(RB3LYP) =  -839.971259054     A.U. after   10 cycles

                          Input orientation:
 ---------------------------------------------------------------------
 Center     Atomic      Atomic             Coordinates (Angstroms)
 Number     Number       Type             X           Y           Z
 ---------------------------------------------------------------------
      1          6           0       -1.741545    0.478039   -0.582344
      2          8           0       -1.045772    0.822248    0.932105
      3          6           0       -1.600101   -1.034516   -0.722931
      4          6           0       -0.120648   -1.448753   -0.627020
      5          6           0        0.471829   -1.117859    0.762955
      6          6           0        0.333295    0.353659    1.185191
      7          1           0       -1.960077   -1.265496   -1.736370
      8          1           0        1.545352   -1.321456    0.738999
      9          1           0        0.426014    0.364425    2.274620
     10          1           0       -0.051058   -2.533669   -0.752592
     11          8           0       -2.336264   -1.772001    0.248724
     12          8           0        0.595086   -0.839461   -1.704853
     13          8           0       -0.061071   -1.993168    1.745866
     14          1           0        0.157388    0.033217   -1.870882
     15          1           0       -3.247637   -1.439637    0.270304
     16          1           0       -1.028655   -1.990972    1.632119
     17          6           0        1.393355    1.324744    0.617716
     18          8           0        2.670518    0.917809    1.046502
     19          1           0        1.196020    2.326383    1.016948
     20          1           0        1.324829    1.393511   -0.473304
     21          1           0        3.049920    0.357864    0.330673
     22          8           0       -1.162393    1.176874   -1.492376
     23          1           0       -1.120863    2.604496   -0.813860
     24          1           0       -2.753070    0.786010   -0.246922
     25          1           0       -1.051085    1.846072    0.842503
     26          8           0       -1.079599    3.137402    0.045441
     27          1           0       -1.896727    3.656444    0.097282
     28          8           0        3.319506   -0.614009   -1.166964
     29          1           0        2.404529   -0.760516   -1.500015
     30          1           0        3.770745   -0.116360   -1.864682
 ---------------------------------------------------------------------

 Alpha  occ. eigenvalues --  -19.21418 -19.18744 -19.17208 -19.16012 -19.14510
 Alpha  occ. eigenvalues --  -19.13166 -19.12894 -19.11889 -10.30868 -10.26321
 Alpha  occ. eigenvalues --  -10.25239 -10.24793 -10.23737 -10.22581  -1.09210
 Alpha  occ. eigenvalues --   -1.05982  -1.03515  -1.02873  -1.01304  -1.00643
 Alpha  occ. eigenvalues --   -1.00258  -0.99245  -0.78396  -0.76390  -0.69072
 Alpha  occ. eigenvalues --   -0.65852  -0.63909  -0.58605  -0.56735  -0.55775
 Alpha  occ. eigenvalues --   -0.54544  -0.52982  -0.51799  -0.50299  -0.48492
 Alpha  occ. eigenvalues --   -0.47784  -0.47165  -0.45547  -0.44937  -0.43057
 Alpha  occ. eigenvalues --   -0.42669  -0.41529  -0.40644  -0.39863  -0.38603
 Alpha  occ. eigenvalues --   -0.37978  -0.36448  -0.35491  -0.34097  -0.33119
 Alpha  occ. eigenvalues --   -0.32228  -0.30997  -0.29667  -0.29114  -0.28382
 Alpha  occ. eigenvalues --   -0.26246  -0.25877  -0.24696
 Alpha virt. eigenvalues --    0.02485   0.03871   0.04916   0.06744   0.09700
 Alpha virt. eigenvalues --    0.10869   0.12041   0.12195   0.13288   0.15561
 Alpha virt. eigenvalues --    0.16089   0.16629   0.17627   0.18700   0.19727

 Mulliken charges:
               1
     1  C    0.286557
     2  O   -0.621045
     3  C    0.073442
     4  C    0.099410
     5  C    0.095455
     6  C    0.088622
     7  H    0.164270
     8  H    0.171984
     9  H    0.180687
    10  H    0.168341
    11  O   -0.636373
    12  O   -0.687051
    13  O   -0.650896
    14  H    0.441617
    15  H    0.406834
    16  H    0.419858
    17  C   -0.076032
    18  O   -0.652141
    19  H    0.155169
    20  H    0.123414
    21  H    0.441574
    22  O   -0.618443
    23  H    0.447173
    24  H    0.104889
    25  H    0.466634
    26  O   -0.812573
    27  H    0.403988
    28  O   -0.820292
    29  H    0.438875
    30  H    0.396052
 Sum of Mulliken charges =  -0.00000

 Dipole moment (field-independent basis, Debye):
    X=             -5.4080    Y=              2.2799    Z=             -2.1132  Tot=              6.2378
 Quadrupole moment (field-independent basis, Debye-Ang):
   XX=            -73.7637   YY=            -85.4387   ZZ=            -88.0442
   XY=             -2.4889   XZ=             -9.5728   YZ=              2.9182

  Exact polarizability:   0.000   0.000   0.000   0.000   0.000   0.000
 Approx polarizability: 138.701  -1.975 129.038  -3.267  -6.570 135.894

 Normal termination of Gaussian 09 at Sun Jan  8 16:00:14 2017.
