 Gaussian 09, Revision D.01,

 ----------------------------------------------------------------------
 # IRC=(CalcFC,Reverse,MaxCycle=500,MaxPoints=10) B3LYP/6-31G(d) geom=a
 llcheck guess=read
 ----------------------------------------------------------------------

 Structure from the checkpoint file:  "/home/iawad/scratch/MAIN/PRO_Halides/direct/ircro/glo_2w_ALPHA/glo_2w_ALPHA_ircro_B3LYP_6-31G_d_B3LYP_6-31G_d.chk"
 --------------------------
 glo_2w_ALPHA_B3LYP_6-31G_d
 --------------------------
 Charge =  0 Multiplicity = 1

 SCF Done:  E(RB3LYP) =  -839.972599886     A.U. after    6 cycles
 SCF Done:  E(RB3LYP) =  -839.972720342     A.U. after   11 cycles
 SCF Done:  E(RB3LYP) =  -839.972728032     A.U. after   10 cycles
 SCF Done:  E(RB3LYP) =  -839.973093966     A.U. after   12 cycles
 SCF Done:  E(RB3LYP) =  -839.973115400     A.U. after   10 cycles
 SCF Done:  E(RB3LYP) =  -839.973796775     A.U. after   12 cycles
 SCF Done:  E(RB3LYP) =  -839.973815987     A.U. after   10 cycles
 SCF Done:  E(RB3LYP) =  -839.974817004     A.U. after   12 cycles
 SCF Done:  E(RB3LYP) =  -839.975925009     A.U. after   12 cycles
 SCF Done:  E(RB3LYP) =  -839.975941984     A.U. after   10 cycles
 Normal termination of Gaussian 09 at Tue Jun  7 20:00:30 2016.
 Gaussian 09:  AM64L-G09RevD.01 24-Apr-2013

 ---------------------------------------------------
 #N Geom=AllCheck Guess=Read OPT FREQ B3LYP 6-31G(d)
 ---------------------------------------------------

 Structure from the checkpoint file:  "/home/iawad/scratch/MAIN/PRO_Halides/direct/ircro/glo_2w_ALPHA/glo_2w_ALPHA_ircro_B3LYP_6-31G_d_B3LYP_6-31G_d.chk"
 --------------------------
 glo_2w_ALPHA_B3LYP_6-31G_d
 --------------------------
 Charge =  0 Multiplicity = 1

 SCF Done:  E(RB3LYP) =  -839.994033338     A.U. after    7 cycles
 SCF Done:  E(RB3LYP) =  -839.994033669     A.U. after    7 cycles
 SCF Done:  E(RB3LYP) =  -839.994034130     A.U. after    7 cycles
 SCF Done:  E(RB3LYP) =  -839.994034917     A.U. after    7 cycles
 SCF Done:  E(RB3LYP) =  -839.994035933     A.U. after    9 cycles
 SCF Done:  E(RB3LYP) =  -839.994036813     A.U. after    7 cycles
 SCF Done:  E(RB3LYP) =  -839.994037266     A.U. after    7 cycles
 SCF Done:  E(RB3LYP) =  -839.994037473     A.U. after    7 cycles
 SCF Done:  E(RB3LYP) =  -839.994037577     A.U. after    6 cycles
 Optimization completed.
    -- Stationary point found.
 Normal termination of Gaussian 09 at Tue Jun  7 22:38:27 2016.

 --------------------------------------------------------------------
 #N Geom=AllCheck Guess=TCheck SCRF=Check GenChk RB3LYP/6-31G(d) Freq
 --------------------------------------------------------------------

 Structure from the checkpoint file:  "/home/iawad/scratch/MAIN/PRO_Halides/direct/ircro/glo_2w_ALPHA/glo_2w_ALPHA_ircro_B3LYP_6-31G_d_B3LYP_6-31G_d.chk"
 --------------------------
 glo_2w_ALPHA_B3LYP_6-31G_d
 --------------------------
 Charge =  0 Multiplicity = 1

                         Standard orientation:
 ---------------------------------------------------------------------
 Center     Atomic      Atomic             Coordinates (Angstroms)
 Number     Number       Type             X           Y           Z
 ---------------------------------------------------------------------
      1          6           0        0.576690   -1.819356   -0.327177
      2          8           0       -0.656663    0.089984   -1.149323
      3          1           0       -3.428695    0.094089   -0.666502
      4          1           0       -2.876552   -3.177242    1.238164
      5          8           0       -2.573590   -2.258177    1.283806
      6          1           0       -3.090210   -1.342868   -0.160168
      7          8           0       -3.157454   -0.791587   -0.978092
      8          1           0       -1.589086   -0.285309   -1.165548
      9          6           0        1.820020   -0.984722   -0.640294
     10          6           0        1.915721    0.249641    0.264083
     11          6           0        0.947019    1.401871   -0.047273
     12          6           0       -0.533226    0.989747   -0.061832
     13          1           0        1.785108   -0.674977   -1.693824
     14          1           0        1.199703    1.814166   -1.029802
     15          1           0       -0.764984    0.479560    0.893693
     16          1           0        1.739697   -0.085091    1.300020
     17          8           0        2.922810   -1.852021   -0.401921
     18          8           0        3.253939    0.723790    0.124415
     19          8           0        1.224254    2.464143    0.880178
     20          1           0        3.277223    1.594268    0.557556
     21          1           0        3.695418   -1.265735   -0.316207
     22          1           0        1.009769    2.135687    1.770584
     23          6           0       -1.480731    2.188767   -0.198065
     24          8           0       -2.850616    1.842966    0.063267
     25          1           0       -1.455732    2.551205   -1.229319
     26          1           0       -1.160067    3.002134    0.463536
     27          1           0       -2.942931    1.710007    1.020144
     28          1           0        0.146127   -2.381637   -1.173553
     29          8           0        0.159652   -1.971224    0.812107
     30          1           0       -1.596390   -2.306942    1.179073
 ---------------------------------------------------------------------

 SCF Done:  E(RB3LYP) =  -839.994037577     A.U. after    1 cycles

 The electronic state is 1-A.
 Alpha  occ. eigenvalues --  -19.17812 -19.17502 -19.16307 -19.15964 -19.15336
 Alpha  occ. eigenvalues --  -19.14592 -19.14478 -19.13128 -10.29123 -10.25269
 Alpha  occ. eigenvalues --  -10.24905 -10.24697 -10.24446 -10.24404  -1.06346
 Alpha  occ. eigenvalues --   -1.05524  -1.04442  -1.03321  -1.01756  -1.01158
 Alpha  occ. eigenvalues --   -1.00858  -0.98502  -0.78693  -0.75237  -0.69984
 Alpha  occ. eigenvalues --   -0.64993  -0.62042  -0.57040  -0.54643  -0.54216
 Alpha  occ. eigenvalues --   -0.53856  -0.52238  -0.51162  -0.50957  -0.49605
 Alpha  occ. eigenvalues --   -0.47606  -0.46822  -0.46093  -0.43952  -0.43550
 Alpha  occ. eigenvalues --   -0.42278  -0.40496  -0.40021  -0.38954  -0.37951
 Alpha  occ. eigenvalues --   -0.36792  -0.36491  -0.35804  -0.34534  -0.33715
 Alpha  occ. eigenvalues --   -0.31917  -0.31428  -0.30813  -0.29014  -0.28125
 Alpha  occ. eigenvalues --   -0.26905  -0.26634  -0.26163
 Alpha virt. eigenvalues --   -0.03111   0.04177   0.04521   0.06905   0.09073
 Alpha virt. eigenvalues --    0.10713   0.11563   0.12624   0.13152   0.14450
 Alpha virt. eigenvalues --    0.14833   0.14964   0.15923   0.16993   0.17934

 Mulliken charges:
               1
     1  C    0.285277
     2  O   -0.676691
     3  H    0.414300
     4  H    0.399721
     5  O   -0.819217
     6  H    0.423615
     7  O   -0.845215
     8  H    0.440745
     9  C    0.111807
    10  C    0.101514
    11  C    0.099113
    12  C    0.083943
    13  H    0.139965
    14  H    0.162729
    15  H    0.108688
    16  H    0.129216
    17  O   -0.650552
    18  O   -0.664978
    19  O   -0.633355
    20  H    0.410039
    21  H    0.421426
    22  H    0.392528
    23  C   -0.058498
    24  O   -0.622977
    25  H    0.169826
    26  H    0.148083
    27  H    0.400395
    28  H    0.139693
    29  O   -0.446506
    30  H    0.435365
 Sum of Mulliken charges =   0.00000

 Dipole moment (field-independent basis, Debye):
    X=             -0.2976    Y=              1.3031    Z=              2.6436  Tot=              2.9623
 Quadrupole moment (field-independent basis, Debye-Ang):
   XX=            -88.9737   YY=            -79.8428   ZZ=            -82.6708
   XY=              6.2405   XZ=             -5.5045   YZ=              3.8731

  Exact polarizability: 107.911   1.511 100.139  -1.919   0.863  82.727
 Approx polarizability: 134.915   2.991 132.130  -4.353  -1.997 134.608

                      1                      2                      3
                      A                      A                      A
 Frequencies --     22.4378                51.8470                74.5393
 Red. masses --      4.9320                 5.8570                 6.4409
 Frc consts  --      0.0015                 0.0093                 0.0211
 IR Inten    --      5.5160                 3.2135                 0.1466

                      4                      5                      6
                      A                      A                      A
 Frequencies --     83.3778               111.7223               125.1117
 Red. masses --      7.1116                 5.8358                 6.0831
 Frc consts  --      0.0291                 0.0429                 0.0561
 IR Inten    --      0.4326                 9.9409                 1.8074

                      7                      8                      9
                      A                      A                      A
 Frequencies --    144.1128               159.8259               172.7402
 Red. masses --      4.8708                 4.2968                 7.2737
 Frc consts  --      0.0596                 0.0647                 0.1279
 IR Inten    --      0.5826                12.6587                 9.1011

                     10                     11                     12
                      A                      A                      A
 Frequencies --    196.6119               222.8902               248.0870
 Red. masses --      3.6751                 4.6406                 3.4459
 Frc consts  --      0.0837                 0.1358                 0.1250
 IR Inten    --      8.0514                19.5544                 8.4027

                     13                     14                     15
                      A                      A                      A
 Frequencies --    261.1721               266.1921               275.3545
 Red. masses --      3.1490                 2.7122                 2.3037
 Frc consts  --      0.1266                 0.1132                 0.1029
 IR Inten    --      8.6789                50.3618                97.1180

                     16                     17                     18
                      A                      A                      A
 Frequencies --    291.4499               306.2846               332.8439
 Red. masses --      2.7879                 2.9312                 2.2100
 Frc consts  --      0.1395                 0.1620                 0.1443
 IR Inten    --     12.6056                17.3292                44.9622

                     19                     20                     21
                      A                      A                      A
 Frequencies --    359.3595               362.2273               366.2350
 Red. masses --      2.1927                 1.6671                 2.0650
 Frc consts  --      0.1668                 0.1289                 0.1632
 IR Inten    --     52.9982                64.2785                63.9771

                     22                     23                     24
                      A                      A                      A
 Frequencies --    388.0336               411.3314               421.1091
 Red. masses --      4.6269                 1.2579                 1.1954
 Frc consts  --      0.4105                 0.1254                 0.1249
 IR Inten    --     10.2795                36.2418                82.4432

                     25                     26                     27
                      A                      A                      A
 Frequencies --    423.1382               487.9848               504.5956
 Red. masses --      3.0521                 2.8367                 1.1365
 Frc consts  --      0.3220                 0.3980                 0.1705
 IR Inten    --     13.1630                36.0088               171.9464

                     28                     29                     30
                      A                      A                      A
 Frequencies --    537.0897               567.2824               576.3805
 Red. masses --      5.4715                 1.5322                 1.6469
 Frc consts  --      0.9299                 0.2905                 0.3224
 IR Inten    --     17.6330                44.2009                44.3839

                     31                     32                     33
                      A                      A                      A
 Frequencies --    617.5940               664.2664               704.8953
 Red. masses --      2.6628                 1.1391                 1.1775
 Frc consts  --      0.5984                 0.2961                 0.3447
 IR Inten    --     64.8318                93.9185               141.3917

                     34                     35                     36
                      A                      A                      A
 Frequencies --    741.0529               862.4198               893.8821
 Red. masses --      3.1417                 1.0647                 2.3699
 Frc consts  --      1.0165                 0.4666                 1.1157
 IR Inten    --     86.9515               265.5560                25.9898

                     37                     38                     39
                      A                      A                      A
 Frequencies --    929.4210               972.6535               991.2058
 Red. masses --      2.7109                 1.9681                 4.0996
 Frc consts  --      1.3797                 1.0970                 2.3731
 IR Inten    --     12.2740                83.7817               137.1477

                     40                     41                     42
                      A                      A                      A
 Frequencies --   1010.1129              1063.0965              1068.2522
 Red. masses --      3.2626                 2.6919                 4.1707
 Frc consts  --      1.9613                 1.7925                 2.8042
 IR Inten    --     85.5607                 9.2901                 8.9745

                     43                     44                     45
                      A                      A                      A
 Frequencies --   1083.0241              1102.9390              1107.6953
 Red. masses --      2.0994                 2.0438                 3.9608
 Frc consts  --      1.4508                 1.4648                 2.8634
 IR Inten    --     48.7865                79.7147                98.0721

                     46                     47                     48
                      A                      A                      A
 Frequencies --   1114.3983              1139.1787              1144.0674
 Red. masses --      1.7506                 2.7738                 2.9924
 Frc consts  --      1.2809                 2.1209                 2.3076
 IR Inten    --     34.4896                11.6250                10.7381

                     49                     50                     51
                      A                      A                      A
 Frequencies --   1209.6687              1224.9521              1259.8538
 Red. masses --      1.2543                 1.2711                 1.2245
 Frc consts  --      1.0814                 1.1238                 1.1451
 IR Inten    --     22.8654                26.4985                 7.0499

                     52                     53                     54
                      A                      A                      A
 Frequencies --   1279.0757              1289.8968              1359.1188
 Red. masses --      1.1402                 1.1802                 1.2109
 Frc consts  --      1.0991                 1.1569                 1.3179
 IR Inten    --     33.8634                46.9477                24.4243

                     55                     56                     57
                      A                      A                      A
 Frequencies --   1372.1900              1380.0761              1406.7661
 Red. masses --      1.2121                 1.3003                 1.2864
 Frc consts  --      1.3446                 1.4591                 1.4999
 IR Inten    --      9.5335                49.3257                 3.9177

                     58                     59                     60
                      A                      A                      A
 Frequencies --   1417.7469              1420.8371              1423.3804
 Red. masses --      1.2803                 1.2221                 1.2490
 Frc consts  --      1.5162                 1.4536                 1.4909
 IR Inten    --     15.9875                44.1277                35.5769

                     61                     62                     63
                      A                      A                      A
 Frequencies --   1434.4527              1445.4136              1462.8119
 Red. masses --      1.2485                 1.4663                 1.6570
 Frc consts  --      1.5136                 1.8050                 2.0890
 IR Inten    --     18.7745                38.6698                24.0983

                     64                     65                     66
                      A                      A                      A
 Frequencies --   1522.2792              1533.7444              1725.6195
 Red. masses --      1.0936                 1.2340                 1.0849
 Frc consts  --      1.4931                 1.7104                 1.9035
 IR Inten    --      1.0992                38.5570                77.8565

                     67                     68                     69
                      A                      A                      A
 Frequencies --   1752.8687              1775.7139              2937.7678
 Red. masses --      1.0707                 8.1589                 1.0812
 Frc consts  --      1.9383                15.1575                 5.4979
 IR Inten    --     53.2426               149.5304                30.4510

                     70                     71                     72
                      A                      A                      A
 Frequencies --   2994.2244              3011.8989              3045.3552
 Red. masses --      1.0822                 1.0874                 1.0863
 Frc consts  --      5.7167                 5.8118                 5.9360
 IR Inten    --     26.9848                46.8003                60.5360

                     73                     74                     75
                      A                      A                      A
 Frequencies --   3065.5885              3096.3173              3105.6042
 Red. masses --      1.0627                 1.0861                 1.0716
 Frc consts  --      5.8842                 6.1348                 6.0897
 IR Inten    --     32.6238                25.3975              1014.9035

                     76                     77                     78
                      A                      A                      A
 Frequencies --   3135.0249              3436.5068              3529.0833
 Red. masses --      1.1038                 1.0610                 1.0576
 Frc consts  --      6.3916                 7.3826                 7.7606
 IR Inten    --     20.1837               471.2389               606.5918

                     79                     80                     81
                      A                      A                      A
 Frequencies --   3661.6955              3699.9666              3700.3735
 Red. masses --      1.0689                 1.0657                 1.0651
 Frc consts  --      8.4442                 8.5959                 8.5931
 IR Inten    --    248.9597                17.1937                60.8875

                     82                     83                     84
                      A                      A                      A
 Frequencies --   3714.6812              3738.5188              3803.3262
 Red. masses --      1.0654                 1.0663                 1.0696
 Frc consts  --      8.6615                 8.7804                 9.1157
 IR Inten    --     39.6597                21.3111                78.0149

 - Thermochemistry -
 -------------------
 Temperature   298.150 Kelvin.  Pressure   1.00000 Atm.
 Atom     1 has atomic number  6 and mass  12.00000

 Molecular mass:   216.08452 amu.
 Principal axes and moments of inertia in atomic units:
                           1         2         3
     Eigenvalues --  2439.267243775.330535391.81463
           X            0.99979   0.02031  -0.00357
           Y           -0.02030   0.99979   0.00278
           Z            0.00362  -0.00270   0.99999
 This molecule is an asymmetric top.
 Rotational symmetry number  1.
 Warning -- assumption of classical behavior for rotation
           may cause significant error
 Rotational temperatures (Kelvin)      0.03551     0.02294     0.01606
 Rotational constants (GHZ):           0.73987     0.47804     0.33472
 Zero-point vibrational energy     647980.8 (Joules/Mol)
                                  154.87112 (Kcal/Mol)
 Warning -- explicit consideration of  31 degrees of freedom as
           vibrations may cause significant error
 Vibrational temperatures:     32.28    74.60   107.25   119.96   160.74
          (Kelvin)            180.01   207.35   229.95   248.53   282.88
                              320.69   356.94   375.77   382.99   396.17
                              419.33   440.67   478.89   517.04   521.16
                              526.93   558.29   591.81   605.88   608.80
                              702.10   726.00   772.75   816.19   829.28
                              888.58   955.73  1014.19  1066.21  1240.83
                             1286.10  1337.23  1399.43  1426.12  1453.33
                             1529.56  1536.97  1558.23  1586.88  1593.72
                             1603.37  1639.02  1646.06  1740.44  1762.43
                             1812.65  1840.30  1855.87  1955.47  1974.27
                             1985.62  2024.02  2039.82  2044.27  2047.92
                             2063.85  2079.63  2104.66  2190.22  2206.71
                             2482.78  2521.98  2554.85  4226.79  4308.02
                             4333.45  4381.58  4410.69  4454.90  4468.27
                             4510.60  4944.36  5077.56  5268.36  5323.42
                             5324.01  5344.59  5378.89  5472.13

 Zero-point correction=                           0.246803 (Hartree/Particle)
 Thermal correction to Energy=                    0.264751
 Thermal correction to Enthalpy=                  0.265695
 Thermal correction to Gibbs Free Energy=         0.201608
 Sum of electronic and zero-point Energies=           -839.747235
 Sum of electronic and thermal Energies=              -839.729287
 Sum of electronic and thermal Enthalpies=            -839.728343
 Sum of electronic and thermal Free Energies=         -839.792430

                     E (Thermal)             CV                S
                      KCal/Mol        Cal/Mol-Kelvin    Cal/Mol-Kelvin
 Total                  166.134             65.768            134.883
 Electronic               0.000              0.000              0.000
 Translational            0.889              2.981             42.015
 Rotational               0.889              2.981             32.274
 Vibrational            164.356             59.807             60.594
 Vibration     1          0.593              1.985              6.406
 Vibration     2          0.596              1.977              4.746
 Vibration     3          0.599              1.966              4.030
 Vibration     4          0.600              1.961              3.810
 Vibration     5          0.607              1.940              3.239
 Vibration     6          0.610              1.928              3.020
 Vibration     7          0.616              1.909              2.749
 Vibration     8          0.622              1.892              2.552
 Vibration     9          0.626              1.876              2.405
 Vibration    10          0.636              1.845              2.165
 Vibration    11          0.649              1.806              1.935
 Vibration    12          0.662              1.766              1.744
 Vibration    13          0.669              1.744              1.654
 Vibration    14          0.672              1.735              1.621
 Vibration    15          0.677              1.719              1.562
 Vibration    16          0.687              1.690              1.466
 Vibration    17          0.697              1.662              1.382
 Vibration    18          0.715              1.610              1.246
 Vibration    19          0.734              1.556              1.125
 Vibration    20          0.736              1.550              1.113
 Vibration    21          0.739              1.542              1.096
 Vibration    22          0.756              1.496              1.008
 Vibration    23          0.775              1.446              0.922
 Vibration    24          0.784              1.424              0.888
 Vibration    25          0.785              1.420              0.881
 Vibration    26          0.844              1.277              0.689
 Vibration    27          0.860              1.240              0.647
 Vibration    28          0.892              1.168              0.572
 Vibration    29          0.923              1.102              0.509
 Vibration    30          0.933              1.082              0.492
 Vibration    31          0.977              0.995              0.420

 Normal termination of Gaussian 09 at Tue Jun  7 23:27:53 2016.
