 Gaussian 09, Revision D.01,

 ----------------------------------------------------------------------
 # IRC=(CalcFC,Reverse,MaxCycle=500,MaxPoints=10) B3LYP/6-31G(d) geom=a
 llcheck guess=read
 ----------------------------------------------------------------------

 Structure from the checkpoint file:  "/home/iawad/scratch/MAIN/PRO_Halides/direct/ircro/glo_1w_Beta/glo_1w_Beta_ircro_B3LYP_6-31G_d_B3LYP_6-31G_d.chk"
 -------------------------
 glo_1w_Beta_B3LYP_6-31G_d
 -------------------------
 Charge =  0 Multiplicity = 1

 SCF Done:  E(RB3LYP) =  -839.957872905     A.U. after    5 cycles
 SCF Done:  E(RB3LYP) =  -839.958317625     A.U. after   11 cycles
 SCF Done:  E(RB3LYP) =  -839.959611628     A.U. after   11 cycles
 SCF Done:  E(RB3LYP) =  -839.961584933     A.U. after   12 cycles
 SCF Done:  E(RB3LYP) =  -839.963923666     A.U. after   12 cycles
 SCF Done:  E(RB3LYP) =  -839.966240056     A.U. after   12 cycles
 SCF Done:  E(RB3LYP) =  -839.968249812     A.U. after   12 cycles
 SCF Done:  E(RB3LYP) =  -839.969986191     A.U. after   11 cycles
 SCF Done:  E(RB3LYP) =  -839.971575287     A.U. after   11 cycles
 SCF Done:  E(RB3LYP) =  -839.973086551     A.U. after   11 cycles
 Normal termination of Gaussian 09 at Tue Jun  7 19:46:28 2016.
 Gaussian 09:  AM64L-G09RevD.01 24-Apr-2013

 ---------------------------------------------------
 #N Geom=AllCheck Guess=Read OPT FREQ B3LYP 6-31G(d)
 ---------------------------------------------------

 Structure from the checkpoint file:  "/home/iawad/scratch/MAIN/PRO_Halides/direct/ircro/glo_1w_Beta/glo_1w_Beta_ircro_B3LYP_6-31G_d_B3LYP_6-31G_d.chk"
 -------------------------
 glo_1w_Beta_B3LYP_6-31G_d
 -------------------------
 Charge =  0 Multiplicity = 1

 SCF Done:  E(RB3LYP) =  -840.003642338     A.U. after    7 cycles
 SCF Done:  E(RB3LYP) =  -840.003644297     A.U. after    7 cycles
 SCF Done:  E(RB3LYP) =  -840.003646182     A.U. after    7 cycles
 SCF Done:  E(RB3LYP) =  -840.003648305     A.U. after    7 cycles
 SCF Done:  E(RB3LYP) =  -840.003649251     A.U. after    7 cycles
 SCF Done:  E(RB3LYP) =  -840.003649719     A.U. after    7 cycles
 SCF Done:  E(RB3LYP) =  -840.003649937     A.U. after    7 cycles
 SCF Done:  E(RB3LYP) =  -840.003650068     A.U. after    7 cycles
 SCF Done:  E(RB3LYP) =  -840.003650152     A.U. after    6 cycles
 Optimization completed.
    -- Stationary point found.
 Normal termination of Gaussian 09 at Tue Jun  7 21:53:13 2016.

 --------------------------------------------------------------------
 #N Geom=AllCheck Guess=TCheck SCRF=Check GenChk RB3LYP/6-31G(d) Freq
 --------------------------------------------------------------------

 Structure from the checkpoint file:  "/home/iawad/scratch/MAIN/PRO_Halides/direct/ircro/glo_1w_Beta/glo_1w_Beta_ircro_B3LYP_6-31G_d_B3LYP_6-31G_d.chk"
 -------------------------
 glo_1w_Beta_B3LYP_6-31G_d
 -------------------------
 Charge =  0 Multiplicity = 1

                         Standard orientation:
 ---------------------------------------------------------------------
 Center     Atomic      Atomic             Coordinates (Angstroms)
 Number     Number       Type             X           Y           Z
 ---------------------------------------------------------------------
      1          6           0        1.659985   -0.410547   -0.897962
      2          8           0        1.358949    0.928549   -0.393249
      3          1           0        2.786795    0.020874    2.447522
      4          8           0        3.019113   -0.587287   -0.866323
      5          1           0        3.313185   -0.525506    0.069420
      6          8           0        3.247401    0.457953    1.715263
      7          1           0        2.549376    0.942832    1.233499
      8          6           0        0.853084   -1.398187   -0.047352
      9          6           0       -0.645093   -1.079068   -0.108074
     10          6           0       -0.921712    0.373099    0.292619
     11          6           0       -0.006500    1.309765   -0.523276
     12          6           0       -0.062379    2.767553   -0.068048
     13          8           0       -1.417022    3.219974   -0.184102
     14          8           0        1.078697   -2.712601   -0.505631
     15          8           0       -1.280295   -2.029559    0.727765
     16          8           0       -2.298223    0.666870    0.041048
     17          1           0        1.348642   -0.466211   -1.949336
     18          1           0        1.189780   -1.283172    0.998830
     19          1           0        0.358281   -3.234363   -0.107565
     20          1           0       -2.236327   -2.061459    0.483606
     21          1           0       -2.391752    1.639403    0.067782
     22          1           0       -0.697463    0.492084    1.365461
     23          1           0       -0.315799    1.253860   -1.579294
     24          1           0        0.610238    3.366878   -0.694565
     25          1           0        0.285884    2.831456    0.973562
     26          1           0       -1.482643    4.109322    0.193925
     27          8           0       -3.915373   -1.572434    0.072032
     28          1           0       -4.382097   -1.573973    0.921838
     29          1           0       -0.975540   -1.202914   -1.152970
     30          1           0       -3.570840   -0.656511   -0.013583
 ---------------------------------------------------------------------

 SCF Done:  E(RB3LYP) =  -840.003650152     A.U. after    1 cycles

 The electronic state is 1-A.
 Alpha  occ. eigenvalues --  -19.19315 -19.17365 -19.16586 -19.15687 -19.15175
 Alpha  occ. eigenvalues --  -19.13972 -19.13632 -19.13528 -10.28596 -10.26430
 Alpha  occ. eigenvalues --  -10.25996 -10.25033 -10.23833 -10.23350  -1.07576
 Alpha  occ. eigenvalues --   -1.06163  -1.04010  -1.02469  -1.01481  -1.00988
 Alpha  occ. eigenvalues --   -1.00619  -0.99477  -0.78985  -0.77303  -0.69893
 Alpha  occ. eigenvalues --   -0.64131  -0.62594  -0.59796  -0.56946  -0.55079
 Alpha  occ. eigenvalues --   -0.53483  -0.52840  -0.52459  -0.51776  -0.48837
 Alpha  occ. eigenvalues --   -0.48099  -0.47015  -0.45658  -0.45519  -0.43750
 Alpha  occ. eigenvalues --   -0.41374  -0.41174  -0.39372  -0.39162  -0.38319
 Alpha  occ. eigenvalues --   -0.37549  -0.36148  -0.34862  -0.34015  -0.32987
 Alpha  occ. eigenvalues --   -0.31422  -0.31150  -0.30545  -0.29712  -0.28435
 Alpha  occ. eigenvalues --   -0.26959  -0.26827  -0.25697
 Alpha virt. eigenvalues --    0.02563   0.04532   0.06717   0.08050   0.09865
 Alpha virt. eigenvalues --    0.11298   0.11440   0.12681   0.13968   0.14424
 Alpha virt. eigenvalues --    0.14862   0.16676   0.17303   0.18449   0.18818

 Mulliken charges:
               1
     1  C    0.336772
     2  O   -0.532806
     3  H    0.398061
     4  O   -0.622058
     5  H    0.425132
     6  O   -0.792467
     7  H    0.411254
     8  C    0.133585
     9  C    0.071720
    10  C    0.140513
    11  C    0.102394
    12  C   -0.056908
    13  O   -0.638905
    14  O   -0.636387
    15  O   -0.689141
    16  O   -0.689442
    17  H    0.142226
    18  H    0.090064
    19  H    0.408624
    20  H    0.428168
    21  H    0.434775
    22  H    0.113416
    23  H    0.146588
    24  H    0.162864
    25  H    0.136962
    26  H    0.415344
    27  O   -0.801897
    28  H    0.395206
    29  H    0.132147
    30  H    0.434192
 Sum of Mulliken charges =   0.00000

 Dipole moment (field-independent basis, Debye):
    X=             -4.0423    Y=              5.2272    Z=              3.3155  Tot=              7.3930
 Quadrupole moment (field-independent basis, Debye-Ang):
   XX=            -97.0314   YY=            -74.0324   ZZ=            -80.3363
   XY=             -3.4459   XZ=             -2.2510   YZ=             -1.2977

  Exact polarizability: 105.264  -1.718 101.800  -0.666   0.463  80.631
 Approx polarizability: 137.677  -1.987 129.400   1.327   0.987 122.366

                      1                      2                      3
                      A                      A                      A
 Frequencies --     35.6050                56.7230                71.0053
 Red. masses --      5.9734                 6.7677                 5.6562
 Frc consts  --      0.0045                 0.0128                 0.0168
 IR Inten    --      0.7702                 1.9060                 2.1600

                      4                      5                      6
                      A                      A                      A
 Frequencies --     79.0501               111.5644               130.6650
 Red. masses --      5.7956                 7.4455                 3.5031
 Frc consts  --      0.0213                 0.0546                 0.0352
 IR Inten    --      3.0809                 1.9537                 4.0681

                      7                      8                      9
                      A                      A                      A
 Frequencies --    159.0332               189.1249               196.7402
 Red. masses --      4.6348                 6.5448                 5.3521
 Frc consts  --      0.0691                 0.1379                 0.1221
 IR Inten    --      5.3790                 4.3090                 2.9497

                     10                     11                     12
                      A                      A                      A
 Frequencies --    214.3523               232.3124               253.2147
 Red. masses --      3.5032                 5.4240                 1.4862
 Frc consts  --      0.0948                 0.1725                 0.0561
 IR Inten    --     10.0755                13.2428                24.5607

                     13                     14                     15
                      A                      A                      A
 Frequencies --    276.5551               284.3011               291.8111
 Red. masses --      1.2005                 1.5539                 1.5489
 Frc consts  --      0.0541                 0.0740                 0.0777
 IR Inten    --     60.9949                87.9646                45.4920

                     16                     17                     18
                      A                      A                      A
 Frequencies --    297.4097               309.4552               320.6513
 Red. masses --      1.4403                 2.0606                 2.4627
 Frc consts  --      0.0751                 0.1163                 0.1492
 IR Inten    --     53.8350                57.2955                52.7899

                     19                     20                     21
                      A                      A                      A
 Frequencies --    338.3934               378.6542               381.6029
 Red. masses --      5.6667                 5.7434                 1.6008
 Frc consts  --      0.3823                 0.4852                 0.1373
 IR Inten    --      7.7403                 2.6286               118.8651

                     22                     23                     24
                      A                      A                      A
 Frequencies --    406.9867               415.6894               439.3567
 Red. masses --      3.8853                 4.2546                 4.9195
 Frc consts  --      0.3792                 0.4332                 0.5595
 IR Inten    --      4.2286                 7.1989                 7.5339

                     25                     26                     27
                      A                      A                      A
 Frequencies --    480.6955               516.1093               551.3588
 Red. masses --      5.1275                 1.1379                 2.9067
 Frc consts  --      0.6981                 0.1786                 0.5206
 IR Inten    --      1.5864               114.4522                25.9944

                     28                     29                     30
                      A                      A                      A
 Frequencies --    581.3666               593.6059               615.4210
 Red. masses --      1.3122                 2.5140                 1.1492
 Frc consts  --      0.2613                 0.5219                 0.2564
 IR Inten    --     76.1124                70.7408               345.5157

                     31                     32                     33
                      A                      A                      A
 Frequencies --    632.2118               669.1447               699.8935
 Red. masses --      3.0667                 2.9941                 1.2383
 Frc consts  --      0.7222                 0.7899                 0.3574
 IR Inten    --     14.2428                32.7098               129.9886

                     34                     35                     36
                      A                      A                      A
 Frequencies --    807.8212               882.1678               914.4133
 Red. masses --      1.0729                 1.0963                 2.0716
 Frc consts  --      0.4125                 0.5027                 1.0206
 IR Inten    --     95.3105               156.3266                40.0671

                     37                     38                     39
                      A                      A                      A
 Frequencies --    952.8239              1011.5664              1035.9819
 Red. masses --      4.1738                 3.6592                 3.5816
 Frc consts  --      2.2326                 2.2061                 2.2648
 IR Inten    --    137.3466                 9.5655                 8.5585

                     40                     41                     42
                      A                      A                      A
 Frequencies --   1055.2173              1073.7309              1096.3131
 Red. masses --      4.0501                 5.8196                 4.8687
 Frc consts  --      2.6570                 3.9531                 3.4477
 IR Inten    --     66.3987               116.6251               217.4393

                     43                     44                     45
                      A                      A                      A
 Frequencies --   1108.4415              1116.5170              1133.0962
 Red. masses --      3.2625                 2.5875                 3.6501
 Frc consts  --      2.3617                 1.9005                 2.7611
 IR Inten    --      5.3725                 1.6983               125.5032

                     46                     47                     48
                      A                      A                      A
 Frequencies --   1155.4268              1158.7599              1213.6453
 Red. masses --      2.6840                 4.1689                 2.1293
 Frc consts  --      2.1111                 3.2981                 1.8478
 IR Inten    --      1.1799                39.7934               138.9178

                     49                     50                     51
                      A                      A                      A
 Frequencies --   1215.6955              1246.8662              1262.8815
 Red. masses --      1.3294                 1.2271                 1.2525
 Frc consts  --      1.1576                 1.1241                 1.1770
 IR Inten    --     64.6729                 7.0996                17.7198

                     52                     53                     54
                      A                      A                      A
 Frequencies --   1283.8906              1308.3889              1319.7119
 Red. masses --      1.1810                 1.1606                 1.1394
 Frc consts  --      1.1470                 1.1706                 1.1692
 IR Inten    --     40.8192                 8.0255                 3.5541

                     55                     56                     57
                      A                      A                      A
 Frequencies --   1346.5704              1369.7292              1387.5957
 Red. masses --      1.1831                 1.2487                 1.3718
 Frc consts  --      1.2640                 1.3803                 1.5562
 IR Inten    --     11.6329                15.1333                48.2308

                     58                     59                     60
                      A                      A                      A
 Frequencies --   1395.7645              1402.1422              1427.3903
 Red. masses --      1.2994                 1.2878                 1.3478
 Frc consts  --      1.4915                 1.4917                 1.6179
 IR Inten    --     35.8718                49.4200                19.8109

                     61                     62                     63
                      A                      A                      A
 Frequencies --   1452.3347              1471.6562              1490.2497
 Red. masses --      1.4366                 1.6569                 1.5431
 Frc consts  --      1.7854                 2.1142                 2.0191
 IR Inten    --     11.6859                28.8879                40.4939

                     64                     65                     66
                      A                      A                      A
 Frequencies --   1509.2759              1524.9387              1551.1321
 Red. masses --      1.2111                 1.2652                 1.0899
 Frc consts  --      1.6254                 1.7335                 1.5450
 IR Inten    --     73.2432                61.1201                 3.3793

                     67                     68                     69
                      A                      A                      A
 Frequencies --   1708.7777              1724.9086              2963.4303
 Red. masses --      1.0783                 1.0756                 1.0809
 Frc consts  --      1.8551                 1.8855                 5.5926
 IR Inten    --     73.1029                56.0296                34.0218

                     70                     71                     72
                      A                      A                      A
 Frequencies --   2990.0185              2999.1218              3011.4567
 Red. masses --      1.0812                 1.0838                 1.0809
 Frc consts  --      5.6951                 5.7436                 5.7757
 IR Inten    --      1.6917                25.7605                29.9460

                     73                     74                     75
                      A                      A                      A
 Frequencies --   3023.5200              3061.1440              3077.6820
 Red. masses --      1.0657                 1.0874                 1.1043
 Frc consts  --      5.7399                 6.0038                 6.1631
 IR Inten    --     91.9569                64.5196                48.9475

                     76                     77                     78
                      A                      A                      A
 Frequencies --   3427.5643              3528.1946              3563.9202
 Red. masses --      1.0675                 1.0657                 1.0576
 Frc consts  --      7.3889                 7.8163                 7.9149
 IR Inten    --    468.4618               189.0005               652.1832

                     79                     80                     81
                      A                      A                      A
 Frequencies --   3622.1305              3640.0262              3684.3652
 Red. masses --      1.0653                 1.0525                 1.0649
 Frc consts  --      8.2349                 8.2162                 8.5169
 IR Inten    --    193.7717               202.2647                45.7485

                     82                     83                     84
                      A                      A                      A
 Frequencies --   3770.2852              3795.0733              3807.9775
 Red. masses --      1.0667                 1.0706                 1.0753
 Frc consts  --      8.9341                 9.0848                 9.1873
 IR Inten    --     36.4332                72.4558                69.7272

 - Thermochemistry -
 -------------------
 Temperature   298.150 Kelvin.  Pressure   1.00000 Atm.
 Atom     1 has atomic number  6 and mass  12.00000

 Molecular mass:   216.08452 amu.
 Principal axes and moments of inertia in atomic units:
                           1         2         3
     Eigenvalues --  2661.085493547.510565425.62267
           X            0.99983   0.01793   0.00471
           Y           -0.01793   0.99984   0.00037
           Z           -0.00470  -0.00045   0.99999
 This molecule is an asymmetric top.
 Rotational symmetry number  1.
 Warning -- assumption of classical behavior for rotation
           may cause significant error
 Rotational temperatures (Kelvin)      0.03255     0.02442     0.01596
 Rotational constants (GHZ):           0.67820     0.50873     0.33263
 Zero-point vibrational energy     653710.1 (Joules/Mol)
                                  156.24047 (Kcal/Mol)
 Warning -- explicit consideration of  30 degrees of freedom as
           vibrations may cause significant error
 Vibrational temperatures:     51.23    81.61   102.16   113.74   160.52
          (Kelvin)            188.00   228.81   272.11   283.06   308.40
                              334.25   364.32   397.90   409.05   419.85
                              427.91   445.24   461.35   486.87   544.80
                              549.04   585.56   598.08   632.14   691.61
                              742.57   793.28   836.46   854.07   885.45
                              909.61   962.75  1006.99  1162.27  1269.24
                             1315.64  1370.90  1455.42  1490.55  1518.22
                             1544.86  1577.35  1594.80  1606.42  1630.27
                             1662.40  1667.19  1746.16  1749.11  1793.96
                             1817.00  1847.23  1882.48  1898.77  1937.41
                             1970.73  1996.44  2008.19  2017.37  2053.69
                             2089.58  2117.38  2144.13  2171.51  2194.04
                             2231.73  2458.55  2481.76  4263.71  4301.96
                             4315.06  4332.81  4350.17  4404.30  4428.09
                             4931.49  5076.28  5127.68  5211.43  5237.18
                             5300.97  5424.59  5460.26  5478.82

 Zero-point correction=                           0.248985 (Hartree/Particle)
 Thermal correction to Energy=                    0.266384
 Thermal correction to Enthalpy=                  0.267328
 Thermal correction to Gibbs Free Energy=         0.204763
 Sum of electronic and zero-point Energies=           -839.754665
 Sum of electronic and thermal Energies=              -839.737266
 Sum of electronic and thermal Enthalpies=            -839.736322
 Sum of electronic and thermal Free Energies=         -839.798887

                     E (Thermal)             CV                S
                      KCal/Mol        Cal/Mol-Kelvin    Cal/Mol-Kelvin
 Total                  167.158             64.398            131.679
 Electronic               0.000              0.000              0.000
 Translational            0.889              2.981             42.015
 Rotational               0.889              2.981             32.305
 Vibrational            165.381             58.437             57.360
 Vibration     1          0.594              1.982              5.490
 Vibration     2          0.596              1.975              4.568
 Vibration     3          0.598              1.968              4.125
 Vibration     4          0.600              1.963              3.914
 Vibration     5          0.607              1.940              3.242
 Vibration     6          0.612              1.923              2.936
 Vibration     7          0.621              1.892              2.561
 Vibration     8          0.633              1.855              2.236
 Vibration     9          0.636              1.844              2.163
 Vibration    10          0.644              1.819              2.006
 Vibration    11          0.653              1.792              1.861
 Vibration    12          0.664              1.757              1.708
 Vibration    13          0.678              1.717              1.555
 Vibration    14          0.683              1.703              1.508
 Vibration    15          0.687              1.689              1.463
 Vibration    16          0.691              1.679              1.431
 Vibration    17          0.699              1.656              1.365
 Vibration    18          0.706              1.634              1.307
 Vibration    19          0.719              1.599              1.220
 Vibration    20          0.749              1.516              1.045
 Vibration    21          0.751              1.509              1.033
 Vibration    22          0.772              1.455              0.937
 Vibration    23          0.779              1.436              0.907
 Vibration    24          0.799              1.384              0.829
 Vibration    25          0.837              1.293              0.708
 Vibration    26          0.871              1.214              0.619
 Vibration    27          0.907              1.137              0.541
 Vibration    28          0.938              1.072              0.483
 Vibration    29          0.951              1.045              0.461
 Vibration    30          0.975              0.999              0.424

 Normal termination of Gaussian 09 at Tue Jun  7 22:42:48 2016.
