 Gaussian 09, Revision D.01,

 ----------------------------------------------------------------------
 # IRC=(CalcFC,Reverse,MaxCycle=500,MaxPoints=10) B3LYP/6-31G(d) geom=a
 llcheck guess=read
 ----------------------------------------------------------------------

 Structure from the checkpoint file:  "/home/iawad/scratch/MAIN/PRO_Halides/direct/ircro/glo_2w_Beta/glo_2w_Beta_ircro_B3LYP_6-31G_d_B3LYP_6-31G_d.chk"
 -------------------------
 glo_2w_Beta_B3LYP_6-31G_d
 -------------------------
 Charge =  0 Multiplicity = 1

 SCF Done:  E(RB3LYP) =  -839.965367213     A.U. after    5 cycles
 SCF Done:  E(RB3LYP) =  -839.965741750     A.U. after   11 cycles
 SCF Done:  E(RB3LYP) =  -839.966783559     A.U. after   11 cycles
 SCF Done:  E(RB3LYP) =  -839.968267194     A.U. after   12 cycles
 SCF Done:  E(RB3LYP) =  -839.969869526     A.U. after   12 cycles
 SCF Done:  E(RB3LYP) =  -839.971285902     A.U. after   12 cycles
 SCF Done:  E(RB3LYP) =  -839.972467486     A.U. after   11 cycles
 SCF Done:  E(RB3LYP) =  -839.973528224     A.U. after   11 cycles
 SCF Done:  E(RB3LYP) =  -839.974519847     A.U. after   11 cycles
 SCF Done:  E(RB3LYP) =  -839.975444249     A.U. after   11 cycles
 Normal termination of Gaussian 09 at Tue Jun  7 19:47:02 2016.
 Gaussian 09:  AM64L-G09RevD.01 24-Apr-2013

 ---------------------------------------------------
 #N Geom=AllCheck Guess=Read OPT FREQ B3LYP 6-31G(d)
 ---------------------------------------------------

 Structure from the checkpoint file:  "/home/iawad/scratch/MAIN/PRO_Halides/direct/ircro/glo_2w_Beta/glo_2w_Beta_ircro_B3LYP_6-31G_d_B3LYP_6-31G_d.chk"
 -------------------------
 glo_2w_Beta_B3LYP_6-31G_d
 -------------------------
 Charge =  0 Multiplicity = 1

 SCF Done:  E(RB3LYP) =  -839.995072390     A.U. after   10 cycles
 SCF Done:  E(RB3LYP) =  -839.995092860     A.U. after   10 cycles
 SCF Done:  E(RB3LYP) =  -839.995095638     A.U. after    9 cycles
 SCF Done:  E(RB3LYP) =  -839.995096716     A.U. after    9 cycles
 SCF Done:  E(RB3LYP) =  -839.995096901     A.U. after    7 cycles
 SCF Done:  E(RB3LYP) =  -839.995096920     A.U. after    7 cycles
 SCF Done:  E(RB3LYP) =  -839.995097039     A.U. after    7 cycles
 SCF Done:  E(RB3LYP) =  -839.995096959     A.U. after    7 cycles
 SCF Done:  E(RB3LYP) =  -839.995096997     A.U. after    7 cycles
 Optimization completed.
    -- Stationary point found.
 Normal termination of Gaussian 09 at Tue Jun  7 21:14:39 2016.

 --------------------------------------------------------------------
 #N Geom=AllCheck Guess=TCheck SCRF=Check GenChk RB3LYP/6-31G(d) Freq
 --------------------------------------------------------------------

 Structure from the checkpoint file:  "/home/iawad/scratch/MAIN/PRO_Halides/direct/ircro/glo_2w_Beta/glo_2w_Beta_ircro_B3LYP_6-31G_d_B3LYP_6-31G_d.chk"
 -------------------------
 glo_2w_Beta_B3LYP_6-31G_d
 -------------------------
 Charge =  0 Multiplicity = 1

                         Standard orientation:
 ---------------------------------------------------------------------
 Center     Atomic      Atomic             Coordinates (Angstroms)
 Number     Number       Type             X           Y           Z
 ---------------------------------------------------------------------
      1          6           0       -1.573255    1.147830   -0.011363
      2          8           0       -0.399731   -1.002974    0.433377
      3          8           0       -2.513641    1.037106    0.754454
      4          1           0       -3.767674   -0.126683    0.230595
      5          1           0       -2.244005   -2.440477   -1.788452
      6          1           0       -4.716836   -1.233505    0.746232
      7          8           0       -4.276979   -0.922681   -0.059473
      8          1           0       -3.045043   -2.027156   -0.527966
      9          8           0       -2.231496   -2.521371   -0.823066
     10          1           0       -1.009460   -1.636130   -0.033269
     11          6           0       -0.313814    1.931217    0.329867
     12          6           0        0.960115    1.426664   -0.374232
     13          6           0        1.643435    0.188312    0.228379
     14          6           0        0.913066   -1.125294   -0.073471
     15          1           0       -1.647547    0.807825   -1.062369
     16          1           0       -0.177305    1.929227    1.420513
     17          1           0        1.706961    0.317157    1.321727
     18          1           0        0.915710   -1.265724   -1.169372
     19          1           0        0.723518    1.216128   -1.432364
     20          8           0       -0.615712    3.238417   -0.151242
     21          8           0        1.866733    2.524392   -0.298919
     22          8           0        2.950640    0.178803   -0.348518
     23          1           0        2.746818    2.152641   -0.490523
     24          1           0        0.250456    3.665407   -0.285896
     25          1           0        3.370680   -0.661433   -0.076205
     26          6           0        1.593502   -2.335043    0.592138
     27          8           0        2.965455   -2.510413    0.199143
     28          1           0        1.009350   -3.243027    0.390475
     29          1           0        1.609351   -2.181683    1.674914
     30          1           0        2.974592   -2.844910   -0.711991
 ---------------------------------------------------------------------

 SCF Done:  E(RB3LYP) =  -839.995096997     A.U. after    1 cycles

 The electronic state is 1-A.
 Alpha  occ. eigenvalues --  -19.18179 -19.15987 -19.15345 -19.15286 -19.15240
 Alpha  occ. eigenvalues --  -19.15179 -19.14717 -19.14226 -10.28718 -10.24856
 Alpha  occ. eigenvalues --  -10.24753 -10.24568 -10.24508 -10.24168  -1.05930
 Alpha  occ. eigenvalues --   -1.05371  -1.04325  -1.02667  -1.01944  -1.01432
 Alpha  occ. eigenvalues --   -1.00024  -0.99948  -0.78258  -0.75048  -0.69670
 Alpha  occ. eigenvalues --   -0.64106  -0.60862  -0.58513  -0.55705  -0.53653
 Alpha  occ. eigenvalues --   -0.53152  -0.53091  -0.52365  -0.50150  -0.48887
 Alpha  occ. eigenvalues --   -0.46935  -0.46366  -0.45050  -0.44117  -0.43347
 Alpha  occ. eigenvalues --   -0.42414  -0.41239  -0.39907  -0.39260  -0.37797
 Alpha  occ. eigenvalues --   -0.37204  -0.35676  -0.35515  -0.34508  -0.34305
 Alpha  occ. eigenvalues --   -0.31680  -0.31040  -0.30720  -0.29279  -0.27839
 Alpha  occ. eigenvalues --   -0.26712  -0.26282  -0.26009
 Alpha virt. eigenvalues --   -0.02665   0.04089   0.04644   0.08016   0.09182
 Alpha virt. eigenvalues --    0.09901   0.11889   0.12613   0.13078   0.13892
 Alpha virt. eigenvalues --    0.15590   0.15795   0.16659   0.17795   0.18286

 Mulliken charges:
               1
     1  C    0.318331
     2  O   -0.677178
     3  O   -0.440306
     4  H    0.438989
     5  H    0.394208
     6  H    0.402354
     7  O   -0.819923
     8  H    0.437241
     9  O   -0.827329
    10  H    0.448068
    11  C    0.105850
    12  C    0.116260
    13  C    0.128515
    14  C    0.091575
    15  H    0.108623
    16  H    0.142326
    17  H    0.129984
    18  H    0.105339
    19  H    0.115638
    20  O   -0.651695
    21  O   -0.680552
    22  O   -0.693540
    23  H    0.429021
    24  H    0.426243
    25  H    0.423641
    26  C   -0.075969
    27  O   -0.620939
    28  H    0.151091
    29  H    0.170019
    30  H    0.404115
 Sum of Mulliken charges =   0.00000

 Dipole moment (field-independent basis, Debye):
    X=              1.2409    Y=             -3.4615    Z=             -1.8914  Tot=              4.1351
 Quadrupole moment (field-independent basis, Debye-Ang):
   XX=            -83.7507   YY=            -88.0047   ZZ=            -78.1522
   XY=              2.8485   XZ=             -3.9588   YZ=              3.6178

  Exact polarizability: 111.178   0.494 102.050  -5.917   1.455  79.763
 Approx polarizability: 144.024   1.577 129.123 -12.345   2.646 124.101

                      1                      2                      3
                      A                      A                      A
 Frequencies --     27.1548                34.1685                51.9092
 Red. masses --      5.7527                 5.5418                 6.5668
 Frc consts  --      0.0025                 0.0038                 0.0104
 IR Inten    --      0.6186                 0.6699                 0.5888

                      4                      5                      6
                      A                      A                      A
 Frequencies --     63.3384                71.2391               103.0844
 Red. masses --      6.5271                 5.5485                 8.1953
 Frc consts  --      0.0154                 0.0166                 0.0513
 IR Inten    --      2.4626                 0.9621                 0.3036

                      7                      8                      9
                      A                      A                      A
 Frequencies --    127.0676               161.8633               168.8246
 Red. masses --      7.7415                 4.2509                 3.0801
 Frc consts  --      0.0736                 0.0656                 0.0517
 IR Inten    --      1.0233                 3.6142                 0.6309

                     10                     11                     12
                      A                      A                      A
 Frequencies --    199.3907               224.3227               244.4803
 Red. masses --      6.2565                 4.5704                 4.0065
 Frc consts  --      0.1466                 0.1355                 0.1411
 IR Inten    --     12.1144                 9.2579                23.2461

                     13                     14                     15
                      A                      A                      A
 Frequencies --    253.8528               261.7964               281.7463
 Red. masses --      1.3830                 2.2626                 4.7056
 Frc consts  --      0.0525                 0.0914                 0.2201
 IR Inten    --     94.8010                24.9295                20.9493

                     16                     17                     18
                      A                      A                      A
 Frequencies --    302.6934               335.4103               348.5764
 Red. masses --      4.2550                 1.4032                 1.7735
 Frc consts  --      0.2297                 0.0930                 0.1270
 IR Inten    --      7.3717               107.3873               116.6919

                     19                     20                     21
                      A                      A                      A
 Frequencies --    359.2459               374.9085               398.3038
 Red. masses --      1.8422                 3.0802                 2.3267
 Frc consts  --      0.1401                 0.2551                 0.2175
 IR Inten    --    121.1981                20.2459                67.6889

                     22                     23                     24
                      A                      A                      A
 Frequencies --    405.0541               419.3014               428.7590
 Red. masses --      3.2576                 2.7858                 1.2826
 Frc consts  --      0.3149                 0.2886                 0.1389
 IR Inten    --     30.4785                50.0182                23.6205

                     25                     26                     27
                      A                      A                      A
 Frequencies --    445.3633               451.7142               492.0157
 Red. masses --      1.8688                 3.6686                 2.7542
 Frc consts  --      0.2184                 0.4410                 0.3928
 IR Inten    --     99.2071                22.5433                37.2723

                     28                     29                     30
                      A                      A                      A
 Frequencies --    505.9755               545.2765               557.1906
 Red. masses --      1.3406                 1.2388                 2.3054
 Frc consts  --      0.2022                 0.2170                 0.4217
 IR Inten    --     39.6682                27.6338                13.3465

                     31                     32                     33
                      A                      A                      A
 Frequencies --    591.8711               653.4858               668.7418
 Red. masses --      5.9695                 2.6989                 1.1375
 Frc consts  --      1.2321                 0.6790                 0.2997
 IR Inten    --      8.5470                67.5533                57.0041

                     34                     35                     36
                      A                      A                      A
 Frequencies --    729.2480               826.5702               903.8797
 Red. masses --      1.0739                 1.0536                 1.7292
 Frc consts  --      0.3365                 0.4241                 0.8324
 IR Inten    --    134.3973               131.0371                 1.5315

                     37                     38                     39
                      A                      A                      A
 Frequencies --    966.8930               994.0354              1006.4817
 Red. masses --      1.8950                 1.1347                 3.8712
 Frc consts  --      1.0438                 0.6606                 2.3105
 IR Inten    --     88.5027               244.0241                81.6985

                     40                     41                     42
                      A                      A                      A
 Frequencies --   1022.4021              1037.8412              1058.3083
 Red. masses --      3.3864                 3.5793                 3.1130
 Frc consts  --      2.0856                 2.2715                 2.0542
 IR Inten    --     13.6225                74.8520                 6.2542

                     43                     44                     45
                      A                      A                      A
 Frequencies --   1091.0777              1098.7919              1113.2761
 Red. masses --      2.9228                 3.0452                 4.5966
 Frc consts  --      2.0500                 2.1662                 3.3566
 IR Inten    --     39.6640                84.8041                80.5340

                     46                     47                     48
                      A                      A                      A
 Frequencies --   1119.3681              1121.3675              1139.6186
 Red. masses --      4.4154                 3.2021                 2.5126
 Frc consts  --      3.2596                 2.3724                 1.9226
 IR Inten    --     27.5955                 2.8435                37.9483

                     49                     50                     51
                      A                      A                      A
 Frequencies --   1193.8879              1246.2033              1283.9965
 Red. masses --      1.4728                 1.2785                 1.1617
 Frc consts  --      1.2369                 1.1699                 1.1284
 IR Inten    --      3.2114                29.7198                13.6019

                     52                     53                     54
                      A                      A                      A
 Frequencies --   1299.6424              1311.0591              1351.0138
 Red. masses --      1.1623                 1.1038                 1.1651
 Frc consts  --      1.1567                 1.1178                 1.2529
 IR Inten    --     33.9124                36.9031                 8.3150

                     55                     56                     57
                      A                      A                      A
 Frequencies --   1358.3125              1380.6414              1393.3072
 Red. masses --      1.1905                 1.1768                 1.2375
 Frc consts  --      1.2942                 1.3216                 1.4155
 IR Inten    --     27.6532                17.0604                70.4159

                     58                     59                     60
                      A                      A                      A
 Frequencies --   1407.6025              1415.1081              1420.8670
 Red. masses --      1.3150                 1.2000                 1.2743
 Frc consts  --      1.5351                 1.4159                 1.5158
 IR Inten    --      8.7348                58.6324                 3.1290

                     61                     62                     63
                      A                      A                      A
 Frequencies --   1452.1649              1461.5684              1474.7883
 Red. masses --      1.6418                 1.4062                 1.4320
 Frc consts  --      2.0398                 1.7698                 1.8351
 IR Inten    --     21.0459               109.7709                38.5521

                     64                     65                     66
                      A                      A                      A
 Frequencies --   1520.0676              1535.1722              1740.6347
 Red. masses --      1.1962                 1.1666                 1.0785
 Frc consts  --      1.6285                 1.6199                 1.9253
 IR Inten    --     21.2371                15.2802                84.1092

                     67                     68                     69
                      A                      A                      A
 Frequencies --   1758.3336              1803.5663              2961.4519
 Red. masses --      1.0769                 8.5098                 1.0838
 Frc consts  --      1.9617                16.3092                 5.6001
 IR Inten    --     55.1661               216.5353                22.9231

                     70                     71                     72
                      A                      A                      A
 Frequencies --   2965.2918              2975.6435              2998.3131
 Red. masses --      1.0829                 1.0832                 1.0853
 Frc consts  --      5.6103                 5.6510                 5.7486
 IR Inten    --      5.3140                77.3396                75.2080

                     73                     74                     75
                      A                      A                      A
 Frequencies --   3041.0164              3047.2492              3127.2650
 Red. masses --      1.0855                 1.0669                 1.1009
 Frc consts  --      5.9143                 5.8367                 6.3437
 IR Inten    --     55.0265                37.5643                21.0331

                     76                     77                     78
                      A                      A                      A
 Frequencies --   3238.1486              3345.5771              3452.4725
 Red. masses --      1.0686                 1.0647                 1.0603
 Frc consts  --      6.6016                 7.0211                 7.4465
 IR Inten    --    797.7962               866.3125               906.8035

                     79                     80                     81
                      A                      A                      A
 Frequencies --   3604.9611              3674.6206              3688.2315
 Red. masses --      1.0662                 1.0648                 1.0649
 Frc consts  --      8.1634                 8.4715                 8.5347
 IR Inten    --    262.5943               108.7814                47.4263

                     82                     83                     84
                      A                      A                      A
 Frequencies --   3739.2900              3795.8378              3798.0291
 Red. masses --      1.0662                 1.0664                 1.0678
 Frc consts  --      8.7838                 9.0530                 9.0750
 IR Inten    --     24.8923                45.4697                63.3553

 - Thermochemistry -
 -------------------
 Temperature   298.150 Kelvin.  Pressure   1.00000 Atm.
 Atom     1 has atomic number  6 and mass  12.00000

 Molecular mass:   216.08452 amu.
 Principal axes and moments of inertia in atomic units:
                           1         2         3
     Eigenvalues --  2860.155783839.196166331.13498
           X            0.99962   0.02750   0.00228
           Y           -0.02751   0.99962   0.00244
           Z           -0.00221  -0.00250   0.99999
 This molecule is an asymmetric top.
 Rotational symmetry number  1.
 Warning -- assumption of classical behavior for rotation
           may cause significant error
 Rotational temperatures (Kelvin)      0.03028     0.02256     0.01368
 Rotational constants (GHZ):           0.63099     0.47008     0.28506
 Zero-point vibrational energy     646274.3 (Joules/Mol)
                                  154.46326 (Kcal/Mol)
 Warning -- explicit consideration of  31 degrees of freedom as
           vibrations may cause significant error
 Vibrational temperatures:     39.07    49.16    74.69    91.13   102.50
          (Kelvin)            148.32   182.82   232.88   242.90   286.88
                              322.75   351.75   365.24   376.67   405.37
                              435.51   482.58   501.52   516.87   539.41
                              573.07   582.78   603.28   616.89   640.78
                              649.92   707.90   727.98   784.53   801.67
                              851.57   940.22   962.17  1049.22  1189.25
                             1300.48  1391.14  1430.19  1448.10  1471.01
                             1493.22  1522.67  1569.82  1580.91  1601.75
                             1610.52  1613.40  1639.65  1717.74  1793.01
                             1847.38  1869.89  1886.32  1943.81  1954.31
                             1986.43  2004.66  2025.22  2036.02  2044.31
                             2089.34  2102.87  2121.89  2187.04  2208.77
                             2504.38  2529.85  2594.93  4260.86  4266.39
                             4281.28  4313.90  4375.34  4384.31  4499.43
                             4658.97  4813.53  4967.33  5186.73  5286.95
                             5306.54  5380.00  5461.36  5464.51

 Zero-point correction=                           0.246153 (Hartree/Particle)
 Thermal correction to Energy=                    0.264330
 Thermal correction to Enthalpy=                  0.265274
 Thermal correction to Gibbs Free Energy=         0.199611
 Sum of electronic and zero-point Energies=           -839.748944
 Sum of electronic and thermal Energies=              -839.730767
 Sum of electronic and thermal Enthalpies=            -839.729823
 Sum of electronic and thermal Free Energies=         -839.795486

                     E (Thermal)             CV                S
                      KCal/Mol        Cal/Mol-Kelvin    Cal/Mol-Kelvin
 Total                  165.869             65.926            138.200
 Electronic               0.000              0.000              0.000
 Translational            0.889              2.981             42.015
 Rotational               0.889              2.981             32.608
 Vibrational            164.092             59.965             63.577
 Vibration     1          0.593              1.984              6.027
 Vibration     2          0.594              1.983              5.571
 Vibration     3          0.596              1.977              4.743
 Vibration     4          0.597              1.972              4.350
 Vibration     5          0.598              1.968              4.119
 Vibration     6          0.605              1.947              3.395
 Vibration     7          0.611              1.926              2.990
 Vibration     8          0.622              1.889              2.528
 Vibration     9          0.625              1.881              2.449
 Vibration    10          0.638              1.841              2.139
 Vibration    11          0.649              1.804              1.924
 Vibration    12          0.660              1.772              1.770
 Vibration    13          0.665              1.756              1.704
 Vibration    14          0.669              1.743              1.650
 Vibration    15          0.681              1.707              1.523
 Vibration    16          0.694              1.669              1.402
 Vibration    17          0.717              1.605              1.234
 Vibration    18          0.726              1.578              1.173
 Vibration    19          0.734              1.556              1.125
 Vibration    20          0.746              1.524              1.060
 Vibration    21          0.765              1.474              0.969
 Vibration    22          0.770              1.459              0.944
 Vibration    23          0.782              1.428              0.894
 Vibration    24          0.790              1.408              0.863
 Vibration    25          0.805              1.371              0.810
 Vibration    26          0.810              1.357              0.791
 Vibration    27          0.848              1.268              0.678
 Vibration    28          0.861              1.237              0.643
 Vibration    29          0.900              1.150              0.554
 Vibration    30          0.913              1.124              0.529
 Vibration    31          0.949              1.049              0.464

 Normal termination of Gaussian 09 at Tue Jun  7 22:01:45 2016.
