 Gaussian 09, Revision D.01,

 ----------------------------------------------------------------------
 # IRC=(CalcFC,Forward,MaxCycle=500,MaxPoints=10) B3LYP/6-31G(d) geom=a
 llcheck guess=read
 ----------------------------------------------------------------------

 Structure from the checkpoint file:  "/home/iawad/scratch/MAIN/PRO_Halides/direct/ircfo/glo_1w_Beta/glo_1w_Beta_ircfo_B3LYP_6-31G_d_B3LYP_6-31G_d.chk"
 -------------------------
 glo_1w_Beta_B3LYP_6-31G_d
 -------------------------
 Charge =  0 Multiplicity = 1

 SCF Done:  E(RB3LYP) =  -839.957872905     A.U. after    5 cycles
 SCF Done:  E(RB3LYP) =  -839.958292590     A.U. after   11 cycles
 SCF Done:  E(RB3LYP) =  -839.959437999     A.U. after   12 cycles
 SCF Done:  E(RB3LYP) =  -839.961039055     A.U. after   12 cycles
 SCF Done:  E(RB3LYP) =  -839.962741646     A.U. after   12 cycles
 SCF Done:  E(RB3LYP) =  -839.964284305     A.U. after   12 cycles
 SCF Done:  E(RB3LYP) =  -839.965643554     A.U. after   11 cycles
 SCF Done:  E(RB3LYP) =  -839.966878323     A.U. after   11 cycles
 SCF Done:  E(RB3LYP) =  -839.968032819     A.U. after   11 cycles
 SCF Done:  E(RB3LYP) =  -839.969104184     A.U. after   11 cycles
 Normal termination of Gaussian 09 at Tue Jun  7 19:55:19 2016.
 Gaussian 09:  AM64L-G09RevD.01 24-Apr-2013

 ---------------------------------------------------
 #N Geom=AllCheck Guess=Read OPT FREQ B3LYP 6-31G(d)
 ---------------------------------------------------

 Structure from the checkpoint file:  "/home/iawad/scratch/MAIN/PRO_Halides/direct/ircfo/glo_1w_Beta/glo_1w_Beta_ircfo_B3LYP_6-31G_d_B3LYP_6-31G_d.chk"
 -------------------------
 glo_1w_Beta_B3LYP_6-31G_d
 -------------------------
 Charge =  0 Multiplicity = 1

 SCF Done:  E(RB3LYP) =  -839.990902226     A.U. after    9 cycles
 SCF Done:  E(RB3LYP) =  -839.990904325     A.U. after    9 cycles
 SCF Done:  E(RB3LYP) =  -839.990905648     A.U. after    8 cycles
 SCF Done:  E(RB3LYP) =  -839.990905947     A.U. after    8 cycles
 SCF Done:  E(RB3LYP) =  -839.990906087     A.U. after    7 cycles
 SCF Done:  E(RB3LYP) =  -839.990906057     A.U. after    7 cycles
 SCF Done:  E(RB3LYP) =  -839.990906144     A.U. after    7 cycles
 SCF Done:  E(RB3LYP) =  -839.990906373     A.U. after    7 cycles
 SCF Done:  E(RB3LYP) =  -839.990906472     A.U. after    6 cycles
 Optimization completed.
    -- Stationary point found.
 Normal termination of Gaussian 09 at Tue Jun  7 22:26:22 2016.

 --------------------------------------------------------------------
 #N Geom=AllCheck Guess=TCheck SCRF=Check GenChk RB3LYP/6-31G(d) Freq
 --------------------------------------------------------------------

 Structure from the checkpoint file:  "/home/iawad/scratch/MAIN/PRO_Halides/direct/ircfo/glo_1w_Beta/glo_1w_Beta_ircfo_B3LYP_6-31G_d_B3LYP_6-31G_d.chk"
 -------------------------
 glo_1w_Beta_B3LYP_6-31G_d
 -------------------------
 Charge =  0 Multiplicity = 1

                         Standard orientation:
 ---------------------------------------------------------------------
 Center     Atomic      Atomic             Coordinates (Angstroms)
 Number     Number       Type             X           Y           Z
 ---------------------------------------------------------------------
      1          6           0        2.310023   -0.619213   -0.865996
      2          8           0        0.784257    1.501834   -0.936781
      3          1           0        2.417471    1.597665    2.062154
      4          8           0        3.314009    0.032376   -0.648054
      5          1           0        3.086155    1.300145    0.700513
      6          8           0        2.525497    1.958695    1.169594
      7          1           0        1.275774    1.791134   -0.130395
      8          6           0        1.407775   -1.185910    0.225426
      9          6           0       -0.122017   -1.145880   -0.057782
     10          6           0       -0.829873    0.164734    0.355487
     11          6           0       -0.582376    1.331125   -0.624470
     12          6           0       -1.146255    2.668484   -0.124004
     13          8           0       -2.564352    2.544968    0.067937
     14          8           0        1.831867   -2.537774    0.276320
     15          8           0       -0.639604   -2.233339    0.698066
     16          8           0       -2.238882   -0.103317    0.414698
     17          1           0        2.077569   -0.976765   -1.886898
     18          1           0        1.625785   -0.670108    1.173518
     19          1           0        1.020823   -3.024166    0.537462
     20          1           0       -1.484072   -2.526720    0.277167
     21          1           0       -2.684333    0.768537    0.442620
     22          1           0       -0.478283    0.441820    1.363901
     23          1           0       -1.086273    1.074231   -1.564614
     24          1           0       -0.919375    3.441109   -0.869156
     25          1           0       -0.647940    2.940760    0.819013
     26          1           0       -2.888206    3.327559    0.538075
     27          8           0       -3.078908   -2.538592   -0.497116
     28          1           0       -3.686891   -2.872853    0.180404
     29          1           0       -0.294720   -1.319220   -1.132316
     30          1           0       -3.028227   -1.571989   -0.320719
 ---------------------------------------------------------------------

 SCF Done:  E(RB3LYP) =  -839.990906472     A.U. after    1 cycles

 The electronic state is 1-A.
 Alpha  occ. eigenvalues --  -19.18824 -19.16066 -19.15845 -19.15553 -19.15372
 Alpha  occ. eigenvalues --  -19.14976 -19.14503 -19.13835 -10.28199 -10.25535
 Alpha  occ. eigenvalues --  -10.24978 -10.24941 -10.24922 -10.24351  -1.06071
 Alpha  occ. eigenvalues --   -1.05464  -1.04270  -1.02942  -1.02303  -1.01222
 Alpha  occ. eigenvalues --   -1.01016  -0.99567  -0.78183  -0.75290  -0.69795
 Alpha  occ. eigenvalues --   -0.63979  -0.61123  -0.58540  -0.56088  -0.54884
 Alpha  occ. eigenvalues --   -0.53633  -0.52991  -0.51788  -0.49945  -0.48858
 Alpha  occ. eigenvalues --   -0.46815  -0.46663  -0.45534  -0.44592  -0.43463
 Alpha  occ. eigenvalues --   -0.42404  -0.40803  -0.39945  -0.39637  -0.38560
 Alpha  occ. eigenvalues --   -0.38144  -0.35844  -0.35240  -0.34106  -0.34009
 Alpha  occ. eigenvalues --   -0.31322  -0.30841  -0.30659  -0.30423  -0.27401
 Alpha  occ. eigenvalues --   -0.27274  -0.26788  -0.25415
 Alpha virt. eigenvalues --   -0.02499   0.03258   0.04535   0.06701   0.09267
 Alpha virt. eigenvalues --    0.11319   0.11394   0.13017   0.13682   0.13990
 Alpha virt. eigenvalues --    0.15177   0.16169   0.17025   0.17740   0.19026

 Mulliken charges:
               1
     1  C    0.310551
     2  O   -0.660658
     3  H    0.398712
     4  O   -0.437920
     5  H    0.434727
     6  O   -0.809450
     7  H    0.438992
     8  C    0.099851
     9  C    0.081394
    10  C    0.139647
    11  C    0.092215
    12  C   -0.069291
    13  O   -0.639483
    14  O   -0.653091
    15  O   -0.691847
    16  O   -0.693420
    17  H    0.131089
    18  H    0.099229
    19  H    0.423246
    20  H    0.433271
    21  H    0.436492
    22  H    0.109740
    23  H    0.152100
    24  H    0.161684
    25  H    0.136916
    26  H    0.413390
    27  O   -0.800631
    28  H    0.397737
    29  H    0.134684
    30  H    0.430125
 Sum of Mulliken charges =   0.00000

 Dipole moment (field-independent basis, Debye):
    X=             -4.7747    Y=              2.9324    Z=              2.8400  Tot=              6.2819
 Quadrupole moment (field-independent basis, Debye-Ang):
   XX=            -86.3251   YY=            -79.8424   ZZ=            -81.3932
   XY=             -5.0427   XZ=             -1.4629   YZ=              3.7264

  Exact polarizability: 108.893   2.603 104.433  -0.190   2.221  79.537
 Approx polarizability: 145.230   9.750 136.014   1.382   3.586 119.848

                      1                      2                      3
                      A                      A                      A
 Frequencies --     34.2040                43.4465                54.0135
 Red. masses --      6.0575                 5.6605                 6.1984
 Frc consts  --      0.0042                 0.0063                 0.0107
 IR Inten    --      0.1901                 0.4143                 2.1204

                      4                      5                      6
                      A                      A                      A
 Frequencies --     76.9388                92.7982               132.2115
 Red. masses --      6.0611                 6.4343                 6.8728
 Frc consts  --      0.0211                 0.0326                 0.0708
 IR Inten    --      2.5051                 2.3487                 0.5810

                      7                      8                      9
                      A                      A                      A
 Frequencies --    148.3609               160.5583               180.1818
 Red. masses --      3.1101                 6.4106                 3.8889
 Frc consts  --      0.0403                 0.0974                 0.0744
 IR Inten    --      7.6152                 3.9401                20.5499

                     10                     11                     12
                      A                      A                      A
 Frequencies --    209.8972               217.7603               232.9162
 Red. masses --      6.6261                 5.3771                 4.8598
 Frc consts  --      0.1720                 0.1502                 0.1553
 IR Inten    --      4.1488                11.5779                 2.5987

                     13                     14                     15
                      A                      A                      A
 Frequencies --    245.0042               260.4547               271.7035
 Red. masses --      4.4805                 5.4256                 1.1760
 Frc consts  --      0.1585                 0.2169                 0.0511
 IR Inten    --      9.7183                18.7365                80.8666

                     16                     17                     18
                      A                      A                      A
 Frequencies --    281.6275               293.1756               325.9965
 Red. masses --      2.3730                 1.2154                 1.2163
 Frc consts  --      0.1109                 0.0615                 0.0762
 IR Inten    --      3.9262               192.1605                51.2758

                     19                     20                     21
                      A                      A                      A
 Frequencies --    356.1379               378.7395               388.8303
 Red. masses --      2.8551                 2.4413                 1.6646
 Frc consts  --      0.2134                 0.2063                 0.1483
 IR Inten    --      2.5636                37.8434                65.4690

                     22                     23                     24
                      A                      A                      A
 Frequencies --    399.7850               411.4588               430.6871
 Red. masses --      3.4011                 3.7582                 1.3943
 Frc consts  --      0.3203                 0.3749                 0.1524
 IR Inten    --     45.5777                20.2705                56.1515

                     25                     26                     27
                      A                      A                      A
 Frequencies --    447.8063               453.6166               489.2042
 Red. masses --      4.9777                 4.8928                 4.3462
 Frc consts  --      0.5881                 0.5932                 0.6128
 IR Inten    --     20.4606                15.7362                16.1662

                     28                     29                     30
                      A                      A                      A
 Frequencies --    545.2565               575.4087               582.9028
 Red. masses --      3.1032                 1.1293                 3.6058
 Frc consts  --      0.5436                 0.2203                 0.7218
 IR Inten    --     21.8011                67.5074                48.7995

                     31                     32                     33
                      A                      A                      A
 Frequencies --    621.2387               666.5845               683.7831
 Red. masses --      1.1538                 2.8358                 1.0696
 Frc consts  --      0.2624                 0.7424                 0.2946
 IR Inten    --    128.1538                29.5299               126.6794

                     34                     35                     36
                      A                      A                      A
 Frequencies --    688.9514               865.3130               909.3790
 Red. masses --      1.0903                 1.0863                 1.8953
 Frc consts  --      0.3049                 0.4792                 0.9235
 IR Inten    --    159.2645               318.0301                 1.6037

                     37                     38                     39
                      A                      A                      A
 Frequencies --    930.1867               964.8345               995.8333
 Red. masses --      1.0975                 2.1995                 3.2239
 Frc consts  --      0.5595                 1.2064                 1.8837
 IR Inten    --    205.8702                10.2341                 9.4905

                     40                     41                     42
                      A                      A                      A
 Frequencies --   1016.1417              1053.4723              1059.7591
 Red. masses --      3.0840                 3.1338                 5.0812
 Frc consts  --      1.8762                 2.0491                 3.3623
 IR Inten    --     81.9048                17.4455                52.5700

                     43                     44                     45
                      A                      A                      A
 Frequencies --   1090.3134              1104.0043              1106.0524
 Red. masses --      4.5947                 3.3377                 4.0181
 Frc consts  --      3.2182                 2.3969                 2.8962
 IR Inten    --     89.4620                93.5063                58.5673

                     46                     47                     48
                      A                      A                      A
 Frequencies --   1119.4872              1124.2706              1161.6666
 Red. masses --      3.9508                 3.8117                 3.0279
 Frc consts  --      2.9173                 2.8387                 2.4074
 IR Inten    --     73.0405                 8.6381                13.3325

                     49                     50                     51
                      A                      A                      A
 Frequencies --   1227.7738              1247.0621              1264.6954
 Red. masses --      1.2139                 1.1967                 1.1841
 Frc consts  --      1.0781                 1.0965                 1.1158
 IR Inten    --     19.5175                 8.2010                17.9806

                     52                     53                     54
                      A                      A                      A
 Frequencies --   1292.9611              1318.8821              1341.6226
 Red. masses --      1.1771                 1.1730                 1.1425
 Frc consts  --      1.1594                 1.2021                 1.2116
 IR Inten    --     30.0863                 8.8663                 4.4961

                     55                     56                     57
                      A                      A                      A
 Frequencies --   1366.0347              1368.9448              1391.0429
 Red. masses --      1.2538                 1.1880                 1.1752
 Frc consts  --      1.3785                 1.3117                 1.3398
 IR Inten    --      6.3124                19.7831                69.9071

                     58                     59                     60
                      A                      A                      A
 Frequencies --   1413.3000              1417.3994              1457.0292
 Red. masses --      1.2969                 1.2222                 1.4018
 Frc consts  --      1.5262                 1.4467                 1.7533
 IR Inten    --      4.4149                17.2968                 9.4680

                     61                     62                     63
                      A                      A                      A
 Frequencies --   1462.1631              1495.4812              1496.0599
 Red. masses --      1.4575                 1.2689                 1.2350
 Frc consts  --      1.8359                 1.6720                 1.6285
 IR Inten    --     60.2640               111.0062                 4.5310

                     64                     65                     66
                      A                      A                      A
 Frequencies --   1519.6437              1546.5529              1726.4698
 Red. masses --      1.2144                 1.0939                 1.0847
 Frc consts  --      1.6523                 1.5416                 1.9049
 IR Inten    --    102.6895                 5.5922                47.8131

                     67                     68                     69
                      A                      A                      A
 Frequencies --   1731.3702              1803.5268              2980.0486
 Red. masses --      1.0737                 8.8782                 1.0823
 Frc consts  --      1.8963                17.0146                 5.6632
 IR Inten    --     57.6900               191.1554                18.7527

                     70                     71                     72
                      A                      A                      A
 Frequencies --   2989.1909              3001.1816              3015.1879
 Red. masses --      1.0871                 1.0827                 1.0774
 Frc consts  --      5.7232                 5.7455                 5.7713
 IR Inten    --     28.6774                 9.1726                45.3040

                     73                     74                     75
                      A                      A                      A
 Frequencies --   3016.4771              3064.3111              3082.4109
 Red. masses --      1.0716                 1.0863                 1.1016
 Frc consts  --      5.7449                 6.0099                 6.1666
 IR Inten    --    117.5778                32.2718                59.0067

                     76                     77                     78
                      A                      A                      A
 Frequencies --   3400.0248              3423.7293              3534.5217
 Red. masses --      1.0681                 1.0691                 1.0584
 Frc consts  --      7.2750                 7.3839                 7.7908
 IR Inten    --    503.7213               399.8037               398.9233

                     79                     80                     81
                      A                      A                      A
 Frequencies --   3537.8893              3563.4616              3582.2090
 Red. masses --      1.0593                 1.0633                 1.0649
 Frc consts  --      7.8121                 7.9553                 8.0510
 IR Inten    --    755.0300               108.9474               227.0940

                     82                     83                     84
                      A                      A                      A
 Frequencies --   3767.0176              3791.7593              3801.7123
 Red. masses --      1.0668                 1.0697                 1.0698
 Frc consts  --      8.9189                 9.0617                 9.1101
 IR Inten    --     30.8885                72.2572                48.9365

 - Thermochemistry -
 -------------------
 Temperature   298.150 Kelvin.  Pressure   1.00000 Atm.
 Atom     1 has atomic number  6 and mass  12.00000

 Molecular mass:   216.08452 amu.
 Principal axes and moments of inertia in atomic units:
                           1         2         3
     Eigenvalues --  2836.483703434.924025612.79476
           X            0.99951   0.03090   0.00549
           Y           -0.03094   0.99949   0.00768
           Z           -0.00525  -0.00784   0.99996
 This molecule is an asymmetric top.
 Rotational symmetry number  1.
 Warning -- assumption of classical behavior for rotation
           may cause significant error
 Rotational temperatures (Kelvin)      0.03054     0.02522     0.01543
 Rotational constants (GHZ):           0.63626     0.52541     0.32154
 Zero-point vibrational energy     647906.5 (Joules/Mol)
                                  154.85336 (Kcal/Mol)
 Warning -- explicit consideration of  30 degrees of freedom as
           vibrations may cause significant error
 Vibrational temperatures:     49.21    62.51    77.71   110.70   133.52
          (Kelvin)            190.22   213.46   231.01   259.24   301.99
                              313.31   335.11   352.51   374.74   390.92
                              405.20   421.81   469.04   512.40   544.92
                              559.44   575.20   592.00   619.66   644.29
                              652.65   703.85   784.50   827.88   838.67
                              893.82   959.07   983.81   991.25  1244.99
                             1308.39  1338.33  1388.18  1432.78  1462.00
                             1515.71  1524.76  1568.72  1588.41  1591.36
                             1610.69  1617.57  1671.38  1766.49  1794.24
                             1819.61  1860.28  1897.57  1930.29  1965.42
                             1969.60  2001.40  2033.42  2039.32  2096.34
                             2103.72  2151.66  2152.49  2186.43  2225.14
                             2484.00  2491.05  2594.87  4287.62  4300.77
                             4318.03  4338.18  4340.03  4408.85  4434.90
                             4891.87  4925.98  5085.38  5090.23  5127.02
                             5153.99  5419.89  5455.49  5469.81

 Zero-point correction=                           0.246775 (Hartree/Particle)
 Thermal correction to Energy=                    0.264814
 Thermal correction to Enthalpy=                  0.265758
 Thermal correction to Gibbs Free Energy=         0.201326
 Sum of electronic and zero-point Energies=           -839.744132
 Sum of electronic and thermal Energies=              -839.726092
 Sum of electronic and thermal Enthalpies=            -839.725148
 Sum of electronic and thermal Free Energies=         -839.789580

                     E (Thermal)             CV                S
                      KCal/Mol        Cal/Mol-Kelvin    Cal/Mol-Kelvin
 Total                  166.173             65.806            135.609
 Electronic               0.000              0.000              0.000
 Translational            0.889              2.981             42.015
 Rotational               0.889              2.981             32.370
 Vibrational            164.396             59.844             61.224
 Vibration     1          0.594              1.983              5.569
 Vibration     2          0.595              1.980              5.095
 Vibration     3          0.596              1.976              4.665
 Vibration     4          0.599              1.965              3.967
 Vibration     5          0.602              1.954              3.600
 Vibration     6          0.612              1.921              2.914
 Vibration     7          0.618              1.904              2.693
 Vibration     8          0.622              1.891              2.543
 Vibration     9          0.629              1.867              2.327
 Vibration    10          0.642              1.826              2.045
 Vibration    11          0.646              1.814              1.978
 Vibration    12          0.654              1.791              1.856
 Vibration    13          0.660              1.771              1.766
 Vibration    14          0.669              1.745              1.659
 Vibration    15          0.675              1.725              1.585
 Vibration    16          0.681              1.708              1.524
 Vibration    17          0.688              1.686              1.456
 Vibration    18          0.710              1.624              1.280
 Vibration    19          0.732              1.563              1.139
 Vibration    20          0.749              1.515              1.044
 Vibration    21          0.757              1.494              1.005
 Vibration    22          0.766              1.471              0.963
 Vibration    23          0.775              1.445              0.921
 Vibration    24          0.792              1.403              0.856
 Vibration    25          0.807              1.366              0.802
 Vibration    26          0.812              1.353              0.785
 Vibration    27          0.845              1.274              0.686
 Vibration    28          0.900              1.150              0.554
 Vibration    29          0.932              1.084              0.494
 Vibration    30          0.940              1.068              0.480

 Normal termination of Gaussian 09 at Tue Jun  7 23:32:06 2016.
