 Gaussian 09, Revision D.01,

 ----------------------------------------------------------------------
 # IRC=(CalcFC,Forward,MaxCycle=500,MaxPoints=10) B3LYP/6-31G(d) geom=a
 llcheck guess=read
 ----------------------------------------------------------------------

 Structure from the checkpoint file:  "/home/iawad/scratch/MAIN/PRO_Halides/direct/ircfo/glo_2w_ALPHA/glo_2w_ALPHA_ircfo_B3LYP_6-31G_d_B3LYP_6-31G_d.chk"
 --------------------------
 glo_2w_ALPHA_B3LYP_6-31G_d
 --------------------------
 Charge =  0 Multiplicity = 1

 SCF Done:  E(RB3LYP) =  -839.972599886     A.U. after    6 cycles
 SCF Done:  E(RB3LYP) =  -839.972744729     A.U. after   11 cycles
 SCF Done:  E(RB3LYP) =  -839.972753303     A.U. after   10 cycles
 SCF Done:  E(RB3LYP) =  -839.973309343     A.U. after   11 cycles
 SCF Done:  E(RB3LYP) =  -839.973345707     A.U. after   10 cycles
 SCF Done:  E(RB3LYP) =  -839.974663582     A.U. after   11 cycles
 SCF Done:  E(RB3LYP) =  -839.974688450     A.U. after    9 cycles
 SCF Done:  E(RB3LYP) =  -839.977033051     A.U. after   12 cycles
 SCF Done:  E(RB3LYP) =  -839.980387174     A.U. after   12 cycles
 SCF Done:  E(RB3LYP) =  -839.984340676     A.U. after   12 cycles
 Normal termination of Gaussian 09 at Tue Jun  7 19:57:47 2016.
 Gaussian 09:  AM64L-G09RevD.01 24-Apr-2013

 ---------------------------------------------------
 #N Geom=AllCheck Guess=Read OPT FREQ B3LYP 6-31G(d)
 ---------------------------------------------------

 Structure from the checkpoint file:  "/home/iawad/scratch/MAIN/PRO_Halides/direct/ircfo/glo_2w_ALPHA/glo_2w_ALPHA_ircfo_B3LYP_6-31G_d_B3LYP_6-31G_d.chk"
 --------------------------
 glo_2w_ALPHA_B3LYP_6-31G_d
 --------------------------
 Charge =  0 Multiplicity = 1

 SCF Done:  E(RB3LYP) =  -840.009834567     A.U. after    9 cycles
 SCF Done:  E(RB3LYP) =  -840.009845988     A.U. after    9 cycles
 SCF Done:  E(RB3LYP) =  -840.009855526     A.U. after    9 cycles
 SCF Done:  E(RB3LYP) =  -840.009859881     A.U. after    8 cycles
 SCF Done:  E(RB3LYP) =  -840.009861471     A.U. after    7 cycles
 SCF Done:  E(RB3LYP) =  -840.009861988     A.U. after    7 cycles
 SCF Done:  E(RB3LYP) =  -840.009862281     A.U. after    7 cycles
 SCF Done:  E(RB3LYP) =  -840.009862379     A.U. after    7 cycles
 SCF Done:  E(RB3LYP) =  -840.009862374     A.U. after    6 cycles
 Optimization completed.
    -- Stationary point found.
 Normal termination of Gaussian 09 at Tue Jun  7 22:59:10 2016.

 --------------------------------------------------------------------
 #N Geom=AllCheck Guess=TCheck SCRF=Check GenChk RB3LYP/6-31G(d) Freq
 --------------------------------------------------------------------

 Structure from the checkpoint file:  "/home/iawad/scratch/MAIN/PRO_Halides/direct/ircfo/glo_2w_ALPHA/glo_2w_ALPHA_ircfo_B3LYP_6-31G_d_B3LYP_6-31G_d.chk"
 --------------------------
 glo_2w_ALPHA_B3LYP_6-31G_d
 --------------------------
 Charge =  0 Multiplicity = 1

                         Standard orientation:
 ---------------------------------------------------------------------
 Center     Atomic      Atomic             Coordinates (Angstroms)
 Number     Number       Type             X           Y           Z
 ---------------------------------------------------------------------
      1          6           0        0.034437   -1.327631   -0.358565
      2          8           0       -0.599516   -0.073702   -0.748053
      3          1           0       -3.465992    0.580837   -0.594641
      4          1           0       -3.187224   -2.888648    0.829627
      5          8           0       -2.867588   -2.013105    1.092959
      6          1           0       -3.202385   -1.394900    0.387362
      7          8           0       -3.401540   -0.324347   -0.958022
      8          1           0       -2.451358   -0.339845   -1.191419
      9          6           0        1.532803   -1.165020   -0.630824
     10          6           0        2.070352    0.000604    0.197166
     11          6           0        1.279671    1.286590   -0.058734
     12          6           0       -0.232249    1.031605    0.086351
     13          1           0        1.639629   -0.903930   -1.696256
     14          1           0        1.493173    1.633515   -1.076028
     15          1           0       -0.443282    0.774846    1.137171
     16          1           0        1.968384   -0.270225    1.261220
     17          8           0        2.209768   -2.369703   -0.338942
     18          8           0        3.443039    0.160604   -0.144134
     19          8           0        1.747157    2.336134    0.795566
     20          1           0        3.748014    0.969585    0.299063
     21          1           0        3.157324   -2.158638   -0.382283
     22          1           0        1.595829    2.051011    1.713252
     23          6           0       -1.069863    2.243490   -0.310588
     24          8           0       -2.443321    2.146450    0.083658
     25          1           0       -1.080487    2.341981   -1.399810
     26          1           0       -0.609188    3.144374    0.113617
     27          1           0       -2.478059    2.152910    1.053331
     28          1           0       -0.408351   -2.058165   -1.047550
     29          8           0       -0.189456   -1.636932    0.963460
     30          1           0       -1.155277   -1.855736    1.072588
 ---------------------------------------------------------------------

 SCF Done:  E(RB3LYP) =  -840.009862374     A.U. after    1 cycles

 The electronic state is 1-A.
 Alpha  occ. eigenvalues --  -19.17853 -19.17629 -19.17112 -19.15816 -19.14163
 Alpha  occ. eigenvalues --  -19.14111 -19.13742 -19.13629 -10.28640 -10.25448
 Alpha  occ. eigenvalues --  -10.25278 -10.25221 -10.24234 -10.23764  -1.07405
 Alpha  occ. eigenvalues --   -1.05094  -1.04540  -1.03197  -1.01141  -1.00588
 Alpha  occ. eigenvalues --   -0.99916  -0.98592  -0.79192  -0.77450  -0.69997
 Alpha  occ. eigenvalues --   -0.65070  -0.63099  -0.58958  -0.55658  -0.53808
 Alpha  occ. eigenvalues --   -0.52744  -0.52021  -0.51850  -0.50954  -0.50446
 Alpha  occ. eigenvalues --   -0.48102  -0.47378  -0.44443  -0.44294  -0.43175
 Alpha  occ. eigenvalues --   -0.42770  -0.40974  -0.40041  -0.39619  -0.37298
 Alpha  occ. eigenvalues --   -0.36567  -0.36083  -0.35623  -0.34818  -0.32222
 Alpha  occ. eigenvalues --   -0.31505  -0.30230  -0.29796  -0.29350  -0.28745
 Alpha  occ. eigenvalues --   -0.27981  -0.26643  -0.26308
 Alpha virt. eigenvalues --    0.04197   0.04401   0.07284   0.07783   0.09923
 Alpha virt. eigenvalues --    0.10605   0.11255   0.12469   0.13334   0.13783
 Alpha virt. eigenvalues --    0.14468   0.15783   0.17247   0.18035   0.18801

 Mulliken charges:
               1
     1  C    0.293386
     2  O   -0.536790
     3  H    0.420551
     4  H    0.396359
     5  O   -0.829976
     6  H    0.425370
     7  O   -0.833094
     8  H    0.424521
     9  C    0.150542
    10  C    0.082166
    11  C    0.082174
    12  C    0.108934
    13  H    0.126654
    14  H    0.154694
    15  H    0.125806
    16  H    0.136528
    17  O   -0.635688
    18  O   -0.651458
    19  O   -0.631735
    20  H    0.403907
    21  H    0.409590
    22  H    0.391606
    23  C   -0.064271
    24  O   -0.624044
    25  H    0.169287
    26  H    0.160222
    27  H    0.402199
    28  H    0.135288
    29  O   -0.639628
    30  H    0.446899
 Sum of Mulliken charges =   0.00000

 Dipole moment (field-independent basis, Debye):
    X=              0.5398    Y=              2.4463    Z=              1.2896  Tot=              2.8176
 Quadrupole moment (field-independent basis, Debye-Ang):
   XX=            -86.8906   YY=            -83.4394   ZZ=            -81.6733
   XY=              4.0647   XZ=             -1.5038   YZ=              6.9699

  Exact polarizability: 104.900   1.379  99.040  -0.230   1.804  79.843
 Approx polarizability: 130.577   3.164 130.826   0.305   0.904 124.890

                      1                      2                      3
                      A                      A                      A
 Frequencies --     40.3055                53.2116                81.3742
 Red. masses --      5.5062                 5.7126                 5.5798
 Frc consts  --      0.0053                 0.0095                 0.0218
 IR Inten    --      2.6961                 1.0481                 0.7354

                      4                      5                      6
                      A                      A                      A
 Frequencies --    101.0691               120.2002               146.0088
 Red. masses --      5.9426                 7.4656                 5.1106
 Frc consts  --      0.0358                 0.0636                 0.0642
 IR Inten    --      1.7331                 5.9429                 3.8191

                      7                      8                      9
                      A                      A                      A
 Frequencies --    157.3947               184.1259               207.0624
 Red. masses --      5.6172                 4.7654                 4.1013
 Frc consts  --      0.0820                 0.0952                 0.1036
 IR Inten    --      2.7100                 7.4927                 7.3574

                     10                     11                     12
                      A                      A                      A
 Frequencies --    227.9262               241.4846               255.3680
 Red. masses --      3.8469                 3.1790                 4.3821
 Frc consts  --      0.1177                 0.1092                 0.1684
 IR Inten    --      8.0981                12.3024                13.8419

                     13                     14                     15
                      A                      A                      A
 Frequencies --    280.0823               294.9617               302.8156
 Red. masses --      4.1553                 1.7414                 1.6007
 Frc consts  --      0.1921                 0.0893                 0.0865
 IR Inten    --     29.0379                15.1860                37.9703

                     16                     17                     18
                      A                      A                      A
 Frequencies --    316.2737               330.0619               343.5103
 Red. masses --      2.1805                 1.5114                 1.3923
 Frc consts  --      0.1285                 0.0970                 0.0968
 IR Inten    --      5.4094                80.1209               122.0096

                     19                     20                     21
                      A                      A                      A
 Frequencies --    360.5704               372.9250               396.4057
 Red. masses --      1.3522                 2.6711                 2.5899
 Frc consts  --      0.1036                 0.2189                 0.2398
 IR Inten    --    109.5269                21.2973                27.5511

                     22                     23                     24
                      A                      A                      A
 Frequencies --    408.2335               422.9992               436.1311
 Red. masses --      1.7397                 2.7227                 1.4586
 Frc consts  --      0.1708                 0.2870                 0.1635
 IR Inten    --     47.6315                 4.4629               133.2470

                     25                     26                     27
                      A                      A                      A
 Frequencies --    446.0883               453.4828               541.7356
 Red. masses --      2.0959                 1.4551                 4.1329
 Frc consts  --      0.2457                 0.1763                 0.7146
 IR Inten    --     12.2999               125.7807                 1.8636

                     28                     29                     30
                      A                      A                      A
 Frequencies --    553.0075               575.0810               608.6101
 Red. masses --      2.4778                 1.3994                 3.5206
 Frc consts  --      0.4465                 0.2727                 0.7683
 IR Inten    --     16.9710                41.6002                20.0527

                     31                     32                     33
                      A                      A                      A
 Frequencies --    656.8401               775.4521               780.9149
 Red. masses --      3.8815                 1.1884                 3.6399
 Frc consts  --      0.9867                 0.4210                 1.3078
 IR Inten    --     11.6674               212.6900                79.1337

                     34                     35                     36
                      A                      A                      A
 Frequencies --    842.9063               921.5940               933.9788
 Red. masses --      2.4334                 1.2678                 1.9934
 Frc consts  --      1.0186                 0.6344                 1.0245
 IR Inten    --     15.7914                55.8507               100.4577

                     37                     38                     39
                      A                      A                      A
 Frequencies --    979.3312               999.3630              1021.0250
 Red. masses --      5.4499                 4.6508                 1.1443
 Frc consts  --      3.0796                 2.7367                 0.7029
 IR Inten    --    214.8676               105.3070               118.0730

                     40                     41                     42
                      A                      A                      A
 Frequencies --   1024.8641              1069.4740              1072.5466
 Red. masses --      2.6549                 2.6599                 2.7562
 Frc consts  --      1.6429                 1.7925                 1.8681
 IR Inten    --    109.0538                57.7252                37.3333

                     43                     44                     45
                      A                      A                      A
 Frequencies --   1079.0890              1119.2353              1128.6199
 Red. masses --      4.3598                 2.6859                 3.1357
 Frc consts  --      2.9911                 1.9824                 2.3533
 IR Inten    --     59.2054                21.8591                33.9201

                     46                     47                     48
                      A                      A                      A
 Frequencies --   1138.6628              1143.5206              1182.2145
 Red. masses --      2.7488                 3.9927                 2.1701
 Frc consts  --      2.0998                 3.0761                 1.7870
 IR Inten    --     15.7574                70.4781                84.1032

                     49                     50                     51
                      A                      A                      A
 Frequencies --   1220.4217              1223.9506              1257.9622
 Red. masses --      1.3947                 1.4469                 1.2562
 Frc consts  --      1.2239                 1.2771                 1.1713
 IR Inten    --     31.8745                35.8015                17.7058

                     52                     53                     54
                      A                      A                      A
 Frequencies --   1280.2004              1289.1626              1347.5711
 Red. masses --      1.1623                 1.2367                 1.2700
 Frc consts  --      1.1224                 1.2109                 1.3588
 IR Inten    --     24.4444                26.0596                45.5454

                     55                     56                     57
                      A                      A                      A
 Frequencies --   1357.8120              1377.7341              1379.1744
 Red. masses --      1.2261                 1.3070                 1.2595
 Frc consts  --      1.3318                 1.4617                 1.4116
 IR Inten    --      7.7752                46.0483                 1.4487

                     58                     59                     60
                      A                      A                      A
 Frequencies --   1397.9706              1411.9582              1423.2372
 Red. masses --      1.2595                 1.3415                 1.2548
 Frc consts  --      1.4502                 1.5758                 1.4976
 IR Inten    --     38.5250                 8.9642                57.3410

                     61                     62                     63
                      A                      A                      A
 Frequencies --   1436.0060              1442.0718              1451.6654
 Red. masses --      1.3010                 1.3986                 1.3867
 Frc consts  --      1.5807                 1.7136                 1.7217
 IR Inten    --     31.9532                20.3920                12.2391

                     64                     65                     66
                      A                      A                      A
 Frequencies --   1459.2361              1523.2436              1540.6334
 Red. masses --      1.6135                 1.0870                 1.4153
 Frc consts  --      2.0243                 1.4860                 1.9792
 IR Inten    --     21.7307                 3.4161                43.4520

                     67                     68                     69
                      A                      A                      A
 Frequencies --   1743.5512              1779.5570              2993.1938
 Red. masses --      1.0739                 1.0773                 1.0811
 Frc consts  --      1.9235                 2.0101                 5.7067
 IR Inten    --     74.4089               221.7704                 1.4590

                     70                     71                     72
                      A                      A                      A
 Frequencies --   3001.0864              3006.4589              3058.2504
 Red. masses --      1.0830                 1.0842                 1.0874
 Frc consts  --      5.7467                 5.7742                 5.9921
 IR Inten    --      9.7906                76.5973                52.5483

                     73                     74                     75
                      A                      A                      A
 Frequencies --   3061.5714              3087.0458              3129.8227
 Red. masses --      1.0633                 1.0863                 1.1030
 Frc consts  --      5.8721                 6.0994                 6.3659
 IR Inten    --     23.5433                26.0487                16.5522

                     76                     77                     78
                      A                      A                      A
 Frequencies --   3240.9927              3346.4926              3630.8199
 Red. masses --      1.0671                 1.0640                 1.0496
 Frc consts  --      6.6038                 7.0203                 8.1525
 IR Inten    --    631.8296               982.8636               306.5087

                     79                     80                     81
                      A                      A                      A
 Frequencies --   3673.6954              3701.8955              3727.3924
 Red. masses --      1.0751                 1.0657                 1.0657
 Frc consts  --      8.5485                 8.6050                 8.7235
 IR Inten    --    148.5076                11.5656                25.3070

                     82                     83                     84
                      A                      A                      A
 Frequencies --   3728.9307              3741.5472              3801.6724
 Red. masses --      1.0657                 1.0662                 1.0668
 Frc consts  --      8.7307                 8.7942                 9.0839
 IR Inten    --     38.6411                20.9873                40.3860

 - Thermochemistry -
 -------------------
 Temperature   298.150 Kelvin.  Pressure   1.00000 Atm.
 Atom     1 has atomic number  6 and mass  12.00000

 Molecular mass:   216.08452 amu.
 Principal axes and moments of inertia in atomic units:
                           1         2         3
     Eigenvalues --  2285.754093673.377955271.85744
           X            0.99989   0.01491  -0.00075
           Y           -0.01491   0.99988   0.00349
           Z            0.00080  -0.00348   0.99999
 This molecule is an asymmetric top.
 Rotational symmetry number  1.
 Warning -- assumption of classical behavior for rotation
           may cause significant error
 Rotational temperatures (Kelvin)      0.03789     0.02358     0.01643
 Rotational constants (GHZ):           0.78956     0.49130     0.34233
 Zero-point vibrational energy     654370.0 (Joules/Mol)
                                  156.39819 (Kcal/Mol)
 Warning -- explicit consideration of  30 degrees of freedom as
           vibrations may cause significant error
 Vibrational temperatures:     57.99    76.56   117.08   145.42   172.94
          (Kelvin)            210.07   226.46   264.92   297.92   327.93
                              347.44   367.42   402.98   424.38   435.68
                              455.05   474.88   494.23   518.78   536.56
                              570.34   587.36   608.60   627.49   641.82
                              652.46   779.44   795.65   827.41   875.65
                              945.05  1115.70  1123.56  1212.75  1325.97
                             1343.79  1409.04  1437.86  1469.03  1474.55
                             1538.73  1543.15  1552.57  1610.33  1623.83
                             1638.28  1645.27  1700.94  1755.91  1760.99
                             1809.92  1841.92  1854.82  1938.85  1953.59
                             1982.25  1984.32  2011.37  2031.49  2047.72
                             2066.09  2074.82  2088.62  2099.51  2191.61
                             2216.63  2508.58  2560.38  4306.53  4317.89
                             4325.62  4400.13  4404.91  4441.56  4503.11
                             4663.06  4814.85  5223.93  5285.62  5326.20
                             5362.88  5365.09  5383.25  5469.75

 Zero-point correction=                           0.249236 (Hartree/Particle)
 Thermal correction to Energy=                    0.266369
 Thermal correction to Enthalpy=                  0.267313
 Thermal correction to Gibbs Free Energy=         0.205732
 Sum of electronic and zero-point Energies=           -839.760626
 Sum of electronic and thermal Energies=              -839.743493
 Sum of electronic and thermal Enthalpies=            -839.742549
 Sum of electronic and thermal Free Energies=         -839.804131

                     E (Thermal)             CV                S
                      KCal/Mol        Cal/Mol-Kelvin    Cal/Mol-Kelvin
 Total                  167.149             64.048            129.609
 Electronic               0.000              0.000              0.000
 Translational            0.889              2.981             42.015
 Rotational               0.889              2.981             32.160
 Vibrational            165.372             58.086             55.434
 Vibration     1          0.594              1.981              5.244
 Vibration     2          0.596              1.976              4.694
 Vibration     3          0.600              1.962              3.857
 Vibration     4          0.604              1.948              3.434
 Vibration     5          0.609              1.932              3.097
 Vibration     6          0.617              1.907              2.724
 Vibration     7          0.621              1.894              2.581
 Vibration     8          0.631              1.861              2.286
 Vibration     9          0.641              1.830              2.069
 Vibration    10          0.651              1.798              1.895
 Vibration    11          0.658              1.777              1.792
 Vibration    12          0.666              1.754              1.693
 Vibration    13          0.680              1.710              1.533
 Vibration    14          0.689              1.683              1.445
 Vibration    15          0.694              1.668              1.401
 Vibration    16          0.703              1.643              1.329
 Vibration    17          0.713              1.615              1.260
 Vibration    18          0.722              1.588              1.196
 Vibration    19          0.735              1.553              1.120
 Vibration    20          0.744              1.528              1.068
 Vibration    21          0.763              1.478              0.976
 Vibration    22          0.773              1.452              0.933
 Vibration    23          0.785              1.420              0.882
 Vibration    24          0.797              1.391              0.839
 Vibration    25          0.805              1.370              0.808
 Vibration    26          0.812              1.353              0.785
 Vibration    27          0.897              1.158              0.562
 Vibration    28          0.908              1.133              0.538
 Vibration    29          0.931              1.085              0.495
 Vibration    30          0.967              1.014              0.435

 Normal termination of Gaussian 09 at Wed Jun  8 00:03:10 2016.
