 Gaussian 09, Revision E.01,
 Gaussian 09:  ES64L-G09RevE.01 30-Nov-2015

 ----------------------------------------------------------------
 # IRC=(CalcFC,Forward,MaxCycle=1000,MaxPoints=10) B3LYP/6-31G(d)
 ----------------------------------------------------------------

 --------------------------------------
 glo_2w_alpha_ts_chair2_B3LYP_631Gd.out
 --------------------------------------
 Symbolic Z-matrix:
 Charge =  0 Multiplicity = 1

 SCF Done:  E(RB3LYP) =  -839.969547559     A.U. after   14 cycles
 SCF Done:  E(RB3LYP) =  -839.969790724     A.U. after   11 cycles
 SCF Done:  E(RB3LYP) =  -839.970607128     A.U. after   11 cycles
 SCF Done:  E(RB3LYP) =  -839.972113915     A.U. after   11 cycles
 SCF Done:  E(RB3LYP) =  -839.974323742     A.U. after   11 cycles
 SCF Done:  E(RB3LYP) =  -839.977161504     A.U. after   11 cycles
 SCF Done:  E(RB3LYP) =  -839.980418452     A.U. after   11 cycles
 SCF Done:  E(RB3LYP) =  -839.983745147     A.U. after   12 cycles
 SCF Done:  E(RB3LYP) =  -839.986679099     A.U. after   12 cycles
 SCF Done:  E(RB3LYP) =  -839.988855411     A.U. after   11 cycles
 SCF Done:  E(RB3LYP) =  -839.990500955     A.U. after   11 cycles

                          Input orientation:
 ---------------------------------------------------------------------
 Center     Atomic      Atomic             Coordinates (Angstroms)
 Number     Number       Type             X           Y           Z
 ---------------------------------------------------------------------
      1          6           0       -0.814547   -0.614535   -0.640474
      2          8           0       -0.611622    0.334030    0.551446
      3          6           0        0.339464   -1.629744   -0.611844
      4          6           0        1.729022   -0.989516   -0.411911
      5          6           0        1.757081   -0.043484    0.797623
      6          6           0        0.654867    1.021435    0.707486
      7          1           0        0.331898   -2.168158   -1.576426
      8          1           0        2.725500    0.462885    0.831519
      9          1           0        0.600082    1.481271    1.699824
     10          1           0        2.454789   -1.792760   -0.229104
     11          8           0        0.098445   -2.540357    0.454032
     12          8           0        2.099413   -0.225796   -1.568265
     13          8           0        1.638004   -0.789321    1.996146
     14          1           0        2.217319   -0.829184   -2.318096
     15          1           0       -0.877956   -2.580544    0.511868
     16          1           0        0.937383   -1.452257    1.841742
     17          6           0        0.837871    2.123401   -0.369294
     18          8           0        2.194195    2.470181   -0.588189
     19          1           0        0.327166    3.033093   -0.038018
     20          1           0        0.358588    1.806324   -1.303776
     21          1           0        2.565501    1.736366   -1.109004
     22          1           0       -0.791314    0.009905   -1.540893
     23          8           0       -1.986585   -1.264546   -0.452977
     24          1           0       -2.798757   -0.666785   -0.662910
     25          1           0       -1.787729    1.151732    0.799988
     26          8           0       -3.848020    0.297876   -0.762357
     27          1           0       -4.672346   -0.093469   -0.438543
     28          8           0       -2.655687    1.656491    0.879726
     29          1           0       -2.958897    1.507401    1.787637
     30          1           0       -3.505726    0.944111   -0.051889
 ---------------------------------------------------------------------

 Alpha  occ. eigenvalues --  -19.18217 -19.17072 -19.16401 -19.14949 -19.14878
 Alpha  occ. eigenvalues --  -19.14807 -19.13376 -19.12994 -10.30128 -10.25519
 Alpha  occ. eigenvalues --  -10.25493 -10.23849 -10.23576 -10.22673  -1.07761
 Alpha  occ. eigenvalues --   -1.05203  -1.03619  -1.02278  -1.01992  -1.00714
 Alpha  occ. eigenvalues --   -1.00468  -0.98462  -0.78027  -0.75901  -0.69485
 Alpha  occ. eigenvalues --   -0.65483  -0.63242  -0.57411  -0.56027  -0.55442
 Alpha  occ. eigenvalues --   -0.54158  -0.53138  -0.52484  -0.51049  -0.50537
 Alpha  occ. eigenvalues --   -0.48088  -0.46288  -0.45985  -0.43875  -0.42924
 Alpha  occ. eigenvalues --   -0.42001  -0.40955  -0.40641  -0.38782  -0.37675
 Alpha  occ. eigenvalues --   -0.36705  -0.36049  -0.34473  -0.33321  -0.32188
 Alpha  occ. eigenvalues --   -0.31597  -0.30887  -0.30352  -0.29812  -0.28407
 Alpha  occ. eigenvalues --   -0.28108  -0.26337  -0.24474
 Alpha virt. eigenvalues --    0.03522   0.05349   0.08036   0.08459   0.09859
 Alpha virt. eigenvalues --    0.11195   0.11777   0.12645   0.13091   0.14434
 Alpha virt. eigenvalues --    0.14839   0.16120   0.18235   0.18798   0.19830

 Mulliken charges:
               1
     1  C    0.342929
     2  O   -0.603623
     3  C    0.096596
     4  C    0.074811
     5  C    0.112483
     6  C    0.104837
     7  H    0.123400
     8  H    0.156960
     9  H    0.158126
    10  H    0.156793
    11  O   -0.652472
    12  O   -0.648900
    13  O   -0.652250
    14  H    0.407765
    15  H    0.427427
    16  H    0.418299
    17  C   -0.052366
    18  O   -0.633326
    19  H    0.154896
    20  H    0.133444
    21  H    0.416443
    22  H    0.141008
    23  O   -0.679992
    24  H    0.454708
    25  H    0.464349
    26  O   -0.825936
    27  H    0.395950
    28  O   -0.832703
    29  H    0.394451
    30  H    0.445890
 Sum of Mulliken charges =  -0.00000

 Dipole moment (field-independent basis, Debye):
    X=             -2.4636    Y=             -2.1323    Z=             -1.2639  Tot=              3.4948
 Quadrupole moment (field-independent basis, Debye-Ang):
   XX=            -75.3058   YY=            -93.1308   ZZ=            -80.1808
   XY=             -2.6591   XZ=            -15.3624   YZ=              7.3960

  Exact polarizability:   0.000   0.000   0.000   0.000   0.000   0.000
 Approx polarizability: 134.112   6.351 127.828  -0.963   3.214 127.058

 Normal termination of Gaussian 09 at Sun Jan  8 15:58:58 2017.
