 Gaussian 09, Revision E.01,
 Gaussian 09:  ES64L-G09RevE.01 30-Nov-2015

 --------------------------------------------------------------
 #IRC=(CalcFC,Reverse,MaxCycle=500,MaxPoints=10) B3LYP/6-31G(d)
 --------------------------------------------------------------

 --------------------------------------
 glo_1w_alpha_ts_chair2_B3LYP_631Gd.out
 --------------------------------------
 Symbolic Z-matrix:
 Charge =  0 Multiplicity = 1

 SCF Done:  E(RB3LYP) =  -839.962247059     A.U. after   14 cycles
 SCF Done:  E(RB3LYP) =  -839.962517887     A.U. after   11 cycles
 SCF Done:  E(RB3LYP) =  -839.963153333     A.U. after   12 cycles
 SCF Done:  E(RB3LYP) =  -839.963165465     A.U. after    9 cycles
 SCF Done:  E(RB3LYP) =  -839.963920664     A.U. after   11 cycles
 SCF Done:  E(RB3LYP) =  -839.963938195     A.U. after   10 cycles
 SCF Done:  E(RB3LYP) =  -839.964719313     A.U. after   11 cycles
 SCF Done:  E(RB3LYP) =  -839.965510970     A.U. after   11 cycles
 SCF Done:  E(RB3LYP) =  -839.966287314     A.U. after   11 cycles
 SCF Done:  E(RB3LYP) =  -839.967050287     A.U. after   11 cycles
 SCF Done:  E(RB3LYP) =  -839.967775847     A.U. after   11 cycles
 SCF Done:  E(RB3LYP) =  -839.967804094     A.U. after   10 cycles
 SCF Done:  E(RB3LYP) =  -839.968541909     A.U. after   11 cycles
 SCF Done:  E(RB3LYP) =  -839.969279455     A.U. after   11 cycles

                          Input orientation:
 ---------------------------------------------------------------------
 Center     Atomic      Atomic             Coordinates (Angstroms)
 Number     Number       Type             X           Y           Z
 ---------------------------------------------------------------------
      1          6           0       -1.500420   -0.121912   -0.988478
      2          8           0       -1.020858    0.809713    0.402167
      3          6           0       -0.962779   -1.496047   -0.582276
      4          6           0        0.503174   -1.534691   -0.121112
      5          6           0        0.807112   -0.560580    1.034856
      6          6           0        0.362549    0.891632    0.786852
      7          1           0       -1.052610   -2.122408   -1.491306
      8          1           0        1.886004   -0.550392    1.218257
      9          1           0        0.389729    1.389003    1.762052
     10          1           0        0.720550   -2.541315    0.257741
     11          8           0       -1.800931   -2.001031    0.441740
     12          8           0        1.357699   -1.238293   -1.244508
     13          8           0        0.199765   -1.071005    2.210547
     14          1           0        1.233291   -1.937285   -1.906774
     15          1           0       -2.652304   -1.537241    0.267122
     16          1           0       -0.711745   -1.323728    1.963664
     17          6           0        1.199280    1.738901   -0.185444
     18          8           0        2.464639    1.999150    0.376826
     19          1           0        0.682963    2.698568   -0.324168
     20          1           0        1.273146    1.260433   -1.170622
     21          1           0        3.073605    1.283472    0.087476
     22          1           0       -0.898892    0.403899   -1.747043
     23          8           0       -2.766966   -0.037209   -1.006634
     24          1           0       -3.078870    1.497569   -0.692978
     25          1           0       -1.577751    1.666646    0.302932
     26          8           0       -2.827719    2.348538   -0.212302
     27          1           0       -3.477549    2.440350    0.501608
     28          8           0        3.888019   -0.134461   -0.706767
     29          1           0        4.261647    0.202448   -1.535023
     30          1           0        3.099529   -0.652914   -0.972198
 ---------------------------------------------------------------------

 Alpha  occ. eigenvalues --  -19.19867 -19.19638 -19.16236 -19.16182 -19.15990
 Alpha  occ. eigenvalues --  -19.13687 -19.12378 -19.11783 -10.29435 -10.26409
 Alpha  occ. eigenvalues --  -10.25513 -10.24697 -10.24673 -10.23040  -1.08375
 Alpha  occ. eigenvalues --   -1.06484  -1.04188  -1.02366  -1.01923  -1.01217
 Alpha  occ. eigenvalues --   -0.99943  -0.99619  -0.78982  -0.75803  -0.69767
 Alpha  occ. eigenvalues --   -0.65485  -0.62941  -0.59276  -0.55624  -0.55007
 Alpha  occ. eigenvalues --   -0.54704  -0.53256  -0.51722  -0.51377  -0.49838
 Alpha  occ. eigenvalues --   -0.48344  -0.47776  -0.46397  -0.45002  -0.42751
 Alpha  occ. eigenvalues --   -0.42346  -0.41550  -0.40351  -0.40058  -0.38725
 Alpha  occ. eigenvalues --   -0.37337  -0.36045  -0.34159  -0.33832  -0.33617
 Alpha  occ. eigenvalues --   -0.32686  -0.32269  -0.30129  -0.28556  -0.28089
 Alpha  occ. eigenvalues --   -0.27058  -0.25516  -0.24930
 Alpha virt. eigenvalues --    0.01993   0.03576   0.06240   0.06823   0.08670
 Alpha virt. eigenvalues --    0.10766   0.11405   0.11848   0.13063   0.14484
 Alpha virt. eigenvalues --    0.15391   0.16057   0.17356   0.17777   0.18383

 Mulliken charges:
               1
     1  C    0.329065
     2  O   -0.639714
     3  C    0.095857
     4  C    0.069831
     5  C    0.106061
     6  C    0.106399
     7  H    0.124604
     8  H    0.164950
     9  H    0.171741
    10  H    0.165354
    11  O   -0.651142
    12  O   -0.649926
    13  O   -0.648625
    14  H    0.410658
    15  H    0.414810
    16  H    0.420614
    17  C   -0.069496
    18  O   -0.654619
    19  H    0.142110
    20  H    0.129559
    21  H    0.434932
    22  H    0.129383
    23  O   -0.618892
    24  H    0.442984
    25  H    0.461645
    26  O   -0.813819
    27  H    0.404326
    28  O   -0.808043
    29  H    0.398272
    30  H    0.431120
 Sum of Mulliken charges =  -0.00000

 Dipole moment (field-independent basis, Debye):
    X=             -0.4372    Y=             -1.2915    Z=             -3.5407  Tot=              3.7941
 Quadrupole moment (field-independent basis, Debye-Ang):
   XX=            -84.9512   YY=            -86.3536   ZZ=            -82.3872
   XY=             -8.5940   XZ=            -16.9897   YZ=              8.3210

  Exact polarizability:   0.000   0.000   0.000   0.000   0.000   0.000
 Approx polarizability: 148.296   2.623 125.906   1.421   4.821 130.436

 Normal termination of Gaussian 09 at Sun Jan  8 16:47:56 2017.
