 Gaussian 09, Revision E.01,
 Gaussian 09:  ES64L-G09RevE.01 30-Nov-2015

 ----------------------------------------------------------------
 # IRC=(CalcFC,Forward,MaxCycle=1000,MaxPoints=10) B3LYP/6-31G(d)
 ----------------------------------------------------------------

 -------------------------------------
 glo_2w_beta_ts_chair2_B3LYP_631Gd.out
 -------------------------------------
 Symbolic Z-matrix:
 Charge =  0 Multiplicity = 1

 SCF Done:  E(RB3LYP) =  -839.970321962     A.U. after   14 cycles
 SCF Done:  E(RB3LYP) =  -839.970522395     A.U. after   11 cycles
 SCF Done:  E(RB3LYP) =  -839.971057904     A.U. after   12 cycles
 SCF Done:  E(RB3LYP) =  -839.971762957     A.U. after   12 cycles
 SCF Done:  E(RB3LYP) =  -839.972464176     A.U. after   11 cycles
 SCF Done:  E(RB3LYP) =  -839.972475663     A.U. after   10 cycles
 SCF Done:  E(RB3LYP) =  -839.973124057     A.U. after   11 cycles
 SCF Done:  E(RB3LYP) =  -839.973756221     A.U. after   11 cycles
 SCF Done:  E(RB3LYP) =  -839.974357747     A.U. after   11 cycles
 SCF Done:  E(RB3LYP) =  -839.974933592     A.U. after   11 cycles
 SCF Done:  E(RB3LYP) =  -839.975457405     A.U. after   11 cycles
 SCF Done:  E(RB3LYP) =  -839.975492069     A.U. after   10 cycles
 SCF Done:  E(RB3LYP) =  -839.975489109     A.U. after   10 cycles
 SCF Done:  E(RB3LYP) =  -839.975979672     A.U. after   11 cycles
 SCF Done:  E(RB3LYP) =  -839.976028424     A.U. after   10 cycles

                          Input orientation:
 ---------------------------------------------------------------------
 Center     Atomic      Atomic             Coordinates (Angstroms)
 Number     Number       Type             X           Y           Z
 ---------------------------------------------------------------------
      1          6           0        0.511680   -1.274222    0.345079
      2          8           0        0.463591   -0.329022   -1.032165
      3          6           0       -0.970951   -1.546827    0.614636
      4          6           0       -1.736804   -0.218716    0.794401
      5          6           0       -1.711965    0.625721   -0.499122
      6          6           0       -0.281484    0.934070   -0.971667
      7          1           0       -0.998134   -2.097512    1.566277
      8          1           0       -2.178797    1.590031   -0.286158
      9          1           0       -0.374776    1.235630   -2.019178
     10          1           0       -2.784239   -0.449279    1.016055
     11          8           0       -1.618200   -2.297674   -0.410635
     12          8           0       -1.195587    0.509726    1.898081
     13          8           0       -2.479741    0.029738   -1.529252
     14          1           0       -0.257932    0.210424    1.993874
     15          1           0       -1.063702   -3.061873   -0.634632
     16          1           0       -2.231519   -0.912555   -1.555018
     17          6           0        0.481582    2.025259   -0.154889
     18          8           0       -0.377242    2.888010    0.560426
     19          1           0        1.038955    2.662408   -0.851106
     20          1           0        1.206567    1.538460    0.505598
     21          1           0       -0.770650    2.335851    1.267486
     22          8           0        1.116184   -0.693662    1.322557
     23          1           0        2.627097   -0.557102    1.128904
     24          1           0        1.027871   -2.115029   -0.160915
     25          1           0        1.461144   -0.173088   -1.334912
     26          8           0        3.568193   -0.426134    0.767825
     27          1           0        4.057308   -1.237273    0.969864
     28          8           0        2.853608   -0.063618   -1.611753
     29          1           0        3.110425    0.829974   -1.886333
     30          1           0        3.288259   -0.216150   -0.696942
 ---------------------------------------------------------------------

 Alpha  occ. eigenvalues --  -19.20930 -19.18401 -19.17494 -19.15496 -19.14926
 Alpha  occ. eigenvalues --  -19.13221 -19.13152 -19.12486 -10.30700 -10.25924
 Alpha  occ. eigenvalues --  -10.25300 -10.24723 -10.23598 -10.23356  -1.08705
 Alpha  occ. eigenvalues --   -1.05572  -1.03548  -1.02900  -1.01882  -1.00798
 Alpha  occ. eigenvalues --   -1.00671  -0.99347  -0.78089  -0.76314  -0.69137
 Alpha  occ. eigenvalues --   -0.65822  -0.63921  -0.58727  -0.56630  -0.56135
 Alpha  occ. eigenvalues --   -0.54859  -0.53700  -0.52009  -0.50963  -0.48248
 Alpha  occ. eigenvalues --   -0.47953  -0.46504  -0.45698  -0.45102  -0.43800
 Alpha  occ. eigenvalues --   -0.42183  -0.41962  -0.41404  -0.39155  -0.38610
 Alpha  occ. eigenvalues --   -0.37892  -0.37023  -0.35192  -0.34429  -0.33343
 Alpha  occ. eigenvalues --   -0.31921  -0.31731  -0.30300  -0.29591  -0.27899
 Alpha  occ. eigenvalues --   -0.26070  -0.25523  -0.25076
 Alpha virt. eigenvalues --    0.03018   0.04036   0.04612   0.07528   0.08680
 Alpha virt. eigenvalues --    0.11183   0.11504   0.12048   0.14074   0.14413
 Alpha virt. eigenvalues --    0.15895   0.16703   0.18089   0.18365   0.19353

 Mulliken charges:
               1
     1  C    0.301053
     2  O   -0.627093
     3  C    0.073815
     4  C    0.101172
     5  C    0.101121
     6  C    0.070016
     7  H    0.160925
     8  H    0.170609
     9  H    0.168685
    10  H    0.162033
    11  O   -0.636994
    12  O   -0.677999
    13  O   -0.653011
    14  H    0.438026
    15  H    0.406014
    16  H    0.421726
    17  C   -0.073073
    18  O   -0.632152
    19  H    0.132932
    20  H    0.157458
    21  H    0.419160
    22  O   -0.623963
    23  H    0.456457
    24  H    0.106679
    25  H    0.486447
    26  O   -0.836779
    27  H    0.398648
    28  O   -0.835689
    29  H    0.411064
    30  H    0.452715
 Sum of Mulliken charges =  -0.00000

 Dipole moment (field-independent basis, Debye):
    X=              3.6105    Y=             -3.9665    Z=             -1.2682  Tot=              5.5115
 Quadrupole moment (field-independent basis, Debye-Ang):
   XX=            -85.0103   YY=            -79.7773   ZZ=            -88.2516
   XY=              0.5963   XZ=             -4.9893   YZ=             -5.3519

  Exact polarizability:   0.000   0.000   0.000   0.000   0.000   0.000
 Approx polarizability: 132.538  -2.386 132.454   4.676   1.230 134.386

 Normal termination of Gaussian 09 at Sun Jan  8 16:11:07 2017.
