 Gaussian 09, Revision D.01,

 ----------------------------------------------------------------------
 # IRC=(CalcFC,Forward,MaxCycle=1000,MaxPoints=10) B3LYP/6-31G(d) geom=
 allcheck guess=read
 ----------------------------------------------------------------------

 Structure from the checkpoint file:  "/home/iawad/scratch/MAIN/PRO_Halides/direct/ircfo/glo_1w_ALPHA/glo_1w_ALPHA_ircfo_B3LYP_6-31G_d_B3LYP_6-31G_d.chk"
 --------------------------
 glo_1w_ALPHA_B3LYP_6-31G_d
 --------------------------
 Charge =  0 Multiplicity = 1

 SCF Done:  E(RB3LYP) =  -839.959689633     A.U. after    6 cycles
 SCF Done:  E(RB3LYP) =  -839.960106754     A.U. after   11 cycles
 SCF Done:  E(RB3LYP) =  -839.961204119     A.U. after   12 cycles
 SCF Done:  E(RB3LYP) =  -839.962647088     A.U. after   12 cycles
 SCF Done:  E(RB3LYP) =  -839.964097675     A.U. after   12 cycles
 SCF Done:  E(RB3LYP) =  -839.965422039     A.U. after   11 cycles
 SCF Done:  E(RB3LYP) =  -839.966646176     A.U. after   11 cycles
 SCF Done:  E(RB3LYP) =  -839.967803530     A.U. after   11 cycles
 SCF Done:  E(RB3LYP) =  -839.968911590     A.U. after   11 cycles
 SCF Done:  E(RB3LYP) =  -839.969960917     A.U. after   11 cycles
 Normal termination of Gaussian 09 at Wed Jun  8 18:16:45 2016.
 Gaussian 09:  AM64L-G09RevD.01 24-Apr-2013

 ---------------------------------------------------
 #N Geom=AllCheck Guess=Read OPT FREQ B3LYP 6-31G(d)
 ---------------------------------------------------

 Structure from the checkpoint file:  "/home/iawad/scratch/MAIN/PRO_Halides/direct/ircfo/glo_1w_ALPHA/glo_1w_ALPHA_ircfo_B3LYP_6-31G_d_B3LYP_6-31G_d.chk"
 --------------------------
 glo_1w_ALPHA_B3LYP_6-31G_d
 --------------------------
 Charge =  0 Multiplicity = 1

 SCF Done:  E(RB3LYP) =  -839.988991623     A.U. after   10 cycles
 SCF Done:  E(RB3LYP) =  -839.989010799     A.U. after    9 cycles
 SCF Done:  E(RB3LYP) =  -839.989020403     A.U. after    8 cycles
 SCF Done:  E(RB3LYP) =  -839.989023738     A.U. after    8 cycles
 SCF Done:  E(RB3LYP) =  -839.989025302     A.U. after    8 cycles
 SCF Done:  E(RB3LYP) =  -839.989026329     A.U. after    8 cycles
 SCF Done:  E(RB3LYP) =  -839.989027358     A.U. after    8 cycles
 SCF Done:  E(RB3LYP) =  -839.989028061     A.U. after    8 cycles
 SCF Done:  E(RB3LYP) =  -839.989028313     A.U. after    7 cycles
 Optimization completed.
    -- Stationary point found.
 Normal termination of Gaussian 09 at Wed Jun  8 19:52:25 2016.

 --------------------------------------------------------------------
 #N Geom=AllCheck Guess=TCheck SCRF=Check GenChk RB3LYP/6-31G(d) Freq
 --------------------------------------------------------------------

 Structure from the checkpoint file:  "/home/iawad/scratch/MAIN/PRO_Halides/direct/ircfo/glo_1w_ALPHA/glo_1w_ALPHA_ircfo_B3LYP_6-31G_d_B3LYP_6-31G_d.chk"
 --------------------------
 glo_1w_ALPHA_B3LYP_6-31G_d
 --------------------------
 Charge =  0 Multiplicity = 1

                         Standard orientation:
 ---------------------------------------------------------------------
 Center     Atomic      Atomic             Coordinates (Angstroms)
 Number     Number       Type             X           Y           Z
 ---------------------------------------------------------------------
      1          6           0       -1.319397   -1.954293    0.062949
      2          8           0       -1.652729    0.270646   -1.010179
      3          1           0       -4.587407   -0.500399    0.464828
      4          8           0       -3.767948   -0.043900    0.707070
      5          1           0       -2.541104    0.272046   -0.578338
      6          6           0        0.063304   -1.908409   -0.574777
      7          6           0        0.971852   -0.812926    0.014636
      8          6           0        0.639386    0.625986   -0.433982
      9          6           0       -0.808766    1.094368   -0.209133
     10          1           0       -0.059420   -1.739745   -1.655016
     11          1           0        0.888544    0.716264   -1.496296
     12          1           0       -1.054177    0.976312    0.858670
     13          1           0        0.901102   -0.870065    1.111894
     14          8           0        0.631607   -3.185719   -0.325269
     15          8           0        2.274910   -1.174929   -0.428503
     16          8           0        1.544013    1.549751    0.235366
     17          1           0        2.955955   -0.738727    0.134397
     18          1           0        1.593233   -3.026813   -0.398948
     19          1           0        1.251091    1.609410    1.162409
     20          6           0       -1.047189    2.566992   -0.597850
     21          8           0       -0.395473    3.505893    0.242773
     22          1           0       -2.120494    2.762665   -0.507769
     23          1           0       -0.774796    2.701541   -1.656806
     24          1           0        0.555060    3.384145    0.087049
     25          1           0       -2.118826   -2.359670   -0.586774
     26          8           0       -1.547936   -1.667730    1.226877
     27          1           0       -3.227230   -0.711669    1.179163
     28          8           0        4.063675    0.510945    0.807395
     29          1           0        4.777489    0.604818    0.157796
     30          1           0        3.364891    1.129926    0.508446
 ---------------------------------------------------------------------

 SCF Done:  E(RB3LYP) =  -839.989028313     A.U. after    1 cycles

 The electronic state is 1-A.
 Alpha  occ. eigenvalues --  -19.19535 -19.16740 -19.16436 -19.16318 -19.15527
 Alpha  occ. eigenvalues --  -19.14646 -19.14132 -19.13923 -10.29152 -10.25660
 Alpha  occ. eigenvalues --  -10.24677 -10.24607 -10.24261 -10.23037  -1.06622
 Alpha  occ. eigenvalues --   -1.06074  -1.03491  -1.02988  -1.02150  -1.01892
 Alpha  occ. eigenvalues --   -1.01211  -0.99958  -0.78556  -0.74506  -0.69437
 Alpha  occ. eigenvalues --   -0.64705  -0.61706  -0.56919  -0.55264  -0.54951
 Alpha  occ. eigenvalues --   -0.54452  -0.52767  -0.51911  -0.50032  -0.49636
 Alpha  occ. eigenvalues --   -0.47893  -0.47114  -0.44231  -0.43984  -0.42894
 Alpha  occ. eigenvalues --   -0.42284  -0.40829  -0.40204  -0.39798  -0.38143
 Alpha  occ. eigenvalues --   -0.37854  -0.36055  -0.35590  -0.35289  -0.33669
 Alpha  occ. eigenvalues --   -0.32373  -0.31644  -0.31018  -0.29792  -0.27811
 Alpha  occ. eigenvalues --   -0.27448  -0.25935  -0.25356
 Alpha virt. eigenvalues --   -0.03465   0.03268   0.05145   0.07263   0.09191
 Alpha virt. eigenvalues --    0.10703   0.11322   0.12690   0.13229   0.14035
 Alpha virt. eigenvalues --    0.15584   0.16253   0.16873   0.16978   0.18364

 Mulliken charges:
               1
     1  C    0.276514
     2  O   -0.670518
     3  H    0.403594
     4  O   -0.804686
     5  H    0.440764
     6  C    0.121070
     7  C    0.084377
     8  C    0.112898
     9  C    0.074922
    10  H    0.133976
    11  H    0.159794
    12  H    0.135676
    13  H    0.136201
    14  O   -0.655311
    15  O   -0.697301
    16  O   -0.659289
    17  H    0.429662
    18  H    0.418929
    19  H    0.410866
    20  C   -0.043664
    21  O   -0.629530
    22  H    0.155141
    23  H    0.127378
    24  H    0.399340
    25  H    0.122746
    26  O   -0.441476
    27  H    0.432237
    28  O   -0.797871
    29  H    0.401846
    30  H    0.421717
 Sum of Mulliken charges =   0.00000

 Dipole moment (field-independent basis, Debye):
    X=             -0.0238    Y=              0.5398    Z=             -1.3492  Tot=              1.4533
 Quadrupole moment (field-independent basis, Debye-Ang):
   XX=            -64.0140   YY=            -97.1284   ZZ=            -87.0096
   XY=             11.8558   XZ=             -1.7141   YZ=             -0.7857

  Exact polarizability: 111.791   0.797 100.643   0.069   1.555  79.214
 Approx polarizability: 140.109   0.714 128.590  -0.941   4.544 131.834

                      1                      2                      3
                      A                      A                      A
 Frequencies --     34.7467                61.3457                67.1835
 Red. masses --      5.8759                 6.9914                 5.1022
 Frc consts  --      0.0042                 0.0155                 0.0136
 IR Inten    --      1.7587                 1.2099                 4.3679

                      4                      5                      6
                      A                      A                      A
 Frequencies --     78.4566               111.5636               133.4283
 Red. masses --      5.2461                 6.8173                 3.3164
 Frc consts  --      0.0190                 0.0500                 0.0348
 IR Inten    --      6.5657                 1.4902                10.7721

                      7                      8                      9
                      A                      A                      A
 Frequencies --    139.7502               149.4890               165.3858
 Red. masses --      5.2274                 5.4622                 3.1635
 Frc consts  --      0.0602                 0.0719                 0.0510
 IR Inten    --      3.6362                 6.6805                35.2959

                     10                     11                     12
                      A                      A                      A
 Frequencies --    169.7138               189.0044               223.5056
 Red. masses --      5.8825                 3.8465                 1.6089
 Frc consts  --      0.0998                 0.0810                 0.0474
 IR Inten    --      9.5273                13.6502               169.6501

                     13                     14                     15
                      A                      A                      A
 Frequencies --    234.3005               239.3602               254.8407
 Red. masses --      5.2828                 3.4476                 3.5121
 Frc consts  --      0.1709                 0.1164                 0.1344
 IR Inten    --      6.6763                36.0710                18.7962

                     16                     17                     18
                      A                      A                      A
 Frequencies --    276.3374               297.8427               331.1631
 Red. masses --      1.3466                 2.6257                 2.5471
 Frc consts  --      0.0606                 0.1372                 0.1646
 IR Inten    --     97.5703               119.9518                30.5785

                     19                     20                     21
                      A                      A                      A
 Frequencies --    348.2176               350.4639               392.4383
 Red. masses --      2.2096                 2.6307                 3.1748
 Frc consts  --      0.1579                 0.1904                 0.2881
 IR Inten    --    151.8930                45.3179                44.3197

                     22                     23                     24
                      A                      A                      A
 Frequencies --    394.6638               416.5242               422.5476
 Red. masses --      3.7626                 1.3993                 2.3342
 Frc consts  --      0.3453                 0.1430                 0.2456
 IR Inten    --     34.3498                25.1665                77.4816

                     25                     26                     27
                      A                      A                      A
 Frequencies --    440.4688               471.8311               492.7608
 Red. masses --      1.5501                 3.7722                 1.3944
 Frc consts  --      0.1772                 0.4948                 0.1995
 IR Inten    --     20.1062                24.7962                78.3822

                     28                     29                     30
                      A                      A                      A
 Frequencies --    529.2330               566.6445               579.3172
 Red. masses --      2.0480                 5.1794                 1.9593
 Frc consts  --      0.3380                 0.9798                 0.3874
 IR Inten    --     64.9255                27.4702               102.2083

                     31                     32                     33
                      A                      A                      A
 Frequencies --    600.6674               648.2648               668.0830
 Red. masses --      1.4272                 1.0679                 1.1017
 Frc consts  --      0.3034                 0.2644                 0.2897
 IR Inten    --     39.0820               267.8105                60.1210

                     34                     35                     36
                      A                      A                      A
 Frequencies --    726.4215               884.0862               898.7731
 Red. masses --      4.0166                 1.1445                 1.4647
 Frc consts  --      1.2488                 0.5270                 0.6971
 IR Inten    --     32.8475               100.0772                54.9940

                     37                     38                     39
                      A                      A                      A
 Frequencies --    911.3421               939.2899               983.8079
 Red. masses --      1.2458                 2.2746                 2.1616
 Frc consts  --      0.6096                 1.1824                 1.2327
 IR Inten    --    138.5149                16.8117                46.3044

                     40                     41                     42
                      A                      A                      A
 Frequencies --   1001.4721              1033.2923              1072.0339
 Red. masses --      3.8910                 4.7508                 2.6003
 Frc consts  --      2.2992                 2.9886                 1.7607
 IR Inten    --     85.4561                33.4983                45.5098

                     43                     44                     45
                      A                      A                      A
 Frequencies --   1078.6800              1092.5036              1102.4534
 Red. masses --      4.4093                 5.4782                 4.5269
 Frc consts  --      3.0228                 3.8524                 3.2417
 IR Inten    --     47.1851               108.6752                18.9768

                     46                     47                     48
                      A                      A                      A
 Frequencies --   1112.9165              1117.2425              1127.1094
 Red. masses --      3.0991                 2.9421                 2.6547
 Frc consts  --      2.2615                 2.1638                 1.9870
 IR Inten    --     61.4684                 4.8437                12.9900

                     49                     50                     51
                      A                      A                      A
 Frequencies --   1213.9923              1235.2663              1271.1114
 Red. masses --      1.1951                 1.2132                 1.2410
 Frc consts  --      1.0377                 1.0907                 1.1813
 IR Inten    --     35.8216                13.4970                27.5277

                     52                     53                     54
                      A                      A                      A
 Frequencies --   1294.0423              1313.5387              1344.2756
 Red. masses --      1.1666                 1.1278                 1.1944
 Frc consts  --      1.1510                 1.1464                 1.2716
 IR Inten    --     34.8990                31.9676                10.8499

                     55                     56                     57
                      A                      A                      A
 Frequencies --   1385.9757              1397.4760              1408.0287
 Red. masses --      1.1798                 1.2796                 1.2615
 Frc consts  --      1.3353                 1.4724                 1.4735
 IR Inten    --      8.2951                19.0896                 5.8408

                     58                     59                     60
                      A                      A                      A
 Frequencies --   1411.5453              1430.9863              1437.5504
 Red. masses --      1.3618                 1.2062                 1.2335
 Frc consts  --      1.5986                 1.4552                 1.5019
 IR Inten    --     17.5773                34.9033                 9.9130

                     61                     62                     63
                      A                      A                      A
 Frequencies --   1454.0126              1472.9194              1490.2823
 Red. masses --      1.2326                 1.6111                 1.2582
 Frc consts  --      1.5354                 2.0594                 1.6464
 IR Inten    --     85.6933                32.0486                62.8359

                     64                     65                     66
                      A                      A                      A
 Frequencies --   1507.0686              1529.6994              1715.3878
 Red. masses --      1.2958                 1.1134                 1.0910
 Frc consts  --      1.7341                 1.5350                 1.8915
 IR Inten    --     20.9854                 2.3931                78.1343

                     67                     68                     69
                      A                      A                      A
 Frequencies --   1719.9233              1792.9427              2971.0957
 Red. masses --      1.0758                 8.0952                 1.0859
 Frc consts  --      1.8750                15.3324                 5.6477
 IR Inten    --     63.5891               120.4814                81.0160

                     70                     71                     72
                      A                      A                      A
 Frequencies --   3001.5144              3013.3322              3016.1535
 Red. masses --      1.0771                 1.0766                 1.0826
 Frc consts  --      5.7174                 5.7597                 5.8024
 IR Inten    --      4.1245                54.9321                 8.9119

                     73                     74                     75
                      A                      A                      A
 Frequencies --   3027.6702              3098.6787              3106.5811
 Red. masses --      1.0854                 1.0866                 1.0960
 Frc consts  --      5.8624                 6.1471                 6.2321
 IR Inten    --     72.6981                20.9809                32.1155

                     76                     77                     78
                      A                      A                      A
 Frequencies --   3430.3553              3457.3444              3589.5464
 Red. masses --      1.0677                 1.0683                 1.0559
 Frc consts  --      7.4026                 7.5236                 8.0157
 IR Inten    --    494.1001               514.3802               406.5272

                     79                     80                     81
                      A                      A                      A
 Frequencies --   3592.8540              3633.5161              3694.0052
 Red. masses --      1.0556                 1.0640                 1.0657
 Frc consts  --      8.0282                 8.2767                 8.5681
 IR Inten    --    355.4883                75.3827                25.9489

                     82                     83                     84
                      A                      A                      A
 Frequencies --   3729.6054              3797.8902              3809.0815
 Red. masses --      1.0653                 1.0723                 1.0723
 Frc consts  --      8.7305                 9.1124                 9.1663
 IR Inten    --     48.4185                89.5493                73.4553

 - Thermochemistry -
 -------------------
 Temperature   298.150 Kelvin.  Pressure   1.00000 Atm.
 Atom     1 has atomic number  6 and mass  12.00000

 Molecular mass:   216.08452 amu.
 Principal axes and moments of inertia in atomic units:
                           1         2         3
     Eigenvalues --  2884.147513392.876855630.47019
           X            0.99971   0.02406   0.00223
           Y           -0.02406   0.99971  -0.00018
           Z           -0.00223   0.00012   1.00000
 This molecule is an asymmetric top.
 Rotational symmetry number  1.
 Warning -- assumption of classical behavior for rotation
           may cause significant error
 Rotational temperatures (Kelvin)      0.03003     0.02553     0.01538
 Rotational constants (GHZ):           0.62575     0.53192     0.32053
 Zero-point vibrational energy     648114.1 (Joules/Mol)
                                  154.90299 (Kcal/Mol)
 Warning -- explicit consideration of  31 degrees of freedom as
           vibrations may cause significant error
 Vibrational temperatures:     49.99    88.26    96.66   112.88   160.51
          (Kelvin)            191.97   201.07   215.08   237.95   244.18
                              271.93   321.57   337.11   344.39   366.66
                              397.59   428.53   476.47   501.01   504.24
                              564.63   567.83   599.28   607.95   633.74
                              678.86   708.97   761.45   815.27   833.51
                              864.23   932.71   961.22  1045.16  1272.00
                             1293.13  1311.22  1351.43  1415.48  1440.89
                             1486.68  1542.42  1551.98  1571.87  1586.18
                             1601.24  1607.46  1621.66  1746.66  1777.27
                             1828.84  1861.84  1889.89  1934.11  1994.11
                             2010.65  2025.84  2030.90  2058.87  2068.31
                             2092.00  2119.20  2144.18  2168.33  2200.89
                             2468.06  2474.58  2579.64  4274.74  4318.50
                             4335.51  4339.57  4356.14  4458.30  4469.67
                             4935.51  4974.34  5164.55  5169.31  5227.81
                             5314.84  5366.06  5464.31  5480.41

 Zero-point correction=                           0.246854 (Hartree/Particle)
 Thermal correction to Energy=                    0.265111
 Thermal correction to Enthalpy=                  0.266055
 Thermal correction to Gibbs Free Energy=         0.201536
 Sum of electronic and zero-point Energies=           -839.742175
 Sum of electronic and thermal Energies=              -839.723917
 Sum of electronic and thermal Enthalpies=            -839.722973
 Sum of electronic and thermal Free Energies=         -839.787492

                     E (Thermal)             CV                S
                      KCal/Mol        Cal/Mol-Kelvin    Cal/Mol-Kelvin
 Total                  166.360             66.306            135.791
 Electronic               0.000              0.000              0.000
 Translational            0.889              2.981             42.015
 Rotational               0.889              2.981             32.377
 Vibrational            164.582             60.344             61.399
 Vibration     1          0.594              1.983              5.538
 Vibration     2          0.597              1.973              4.413
 Vibration     3          0.598              1.970              4.234
 Vibration     4          0.600              1.964              3.929
 Vibration     5          0.607              1.940              3.242
 Vibration     6          0.613              1.920              2.896
 Vibration     7          0.615              1.914              2.807
 Vibration     8          0.618              1.903              2.679
 Vibration     9          0.624              1.885              2.487
 Vibration    10          0.625              1.880              2.439
 Vibration    11          0.633              1.855              2.238
 Vibration    12          0.649              1.805              1.931
 Vibration    13          0.654              1.788              1.846
 Vibration    14          0.657              1.780              1.808
 Vibration    15          0.665              1.755              1.697
 Vibration    16          0.678              1.717              1.556
 Vibration    17          0.691              1.678              1.429
 Vibration    18          0.714              1.613              1.254
 Vibration    19          0.726              1.579              1.174
 Vibration    20          0.727              1.574              1.164
 Vibration    21          0.760              1.486              0.991
 Vibration    22          0.762              1.482              0.982
 Vibration    23          0.780              1.434              0.904
 Vibration    24          0.785              1.421              0.883
 Vibration    25          0.800              1.382              0.825
 Vibration    26          0.829              1.313              0.732
 Vibration    27          0.848              1.266              0.676
 Vibration    28          0.884              1.185              0.589
 Vibration    29          0.923              1.103              0.511
 Vibration    30          0.936              1.076              0.487
 Vibration    31          0.959              1.030              0.449

 Normal termination of Gaussian 09 at Wed Jun  8 20:40:59 2016.
