 Gaussian 09, Revision E.01,
 Gaussian 09:  ES64L-G09RevE.01 30-Nov-2015

 -----------------------------------------
 # opt=(MaxCycle=1000) freq B3LYP/6-31G(d)
 -----------------------------------------

 ------------------------------------------------
 ./boats/5/glo_1w_beta_ts_boat5_B3LYP_631Gd_r.out
 ------------------------------------------------
 Symbolic Z-matrix:
 Charge =  0 Multiplicity = 1

 SCF Done:  E(RB3LYP) =  -839.952884792     A.U. after   14 cycles
 SCF Done:  E(RB3LYP) =  -839.961109637     A.U. after   13 cycles
 SCF Done:  E(RB3LYP) =  -839.965856558     A.U. after   13 cycles
 SCF Done:  E(RB3LYP) =  -839.968918601     A.U. after   13 cycles
 SCF Done:  E(RB3LYP) =  -839.970392988     A.U. after   12 cycles
 SCF Done:  E(RB3LYP) =  -839.971507062     A.U. after   13 cycles
 SCF Done:  E(RB3LYP) =  -839.972208879     A.U. after   13 cycles
 SCF Done:  E(RB3LYP) =  -839.972810071     A.U. after   13 cycles
 SCF Done:  E(RB3LYP) =  -839.972239748     A.U. after   14 cycles
 SCF Done:  E(RB3LYP) =  -839.973539826     A.U. after   12 cycles
 SCF Done:  E(RB3LYP) =  -839.984003008     A.U. after    8 cycles
 SCF Done:  E(RB3LYP) =  -839.984002953     A.U. after   10 cycles
 SCF Done:  E(RB3LYP) =  -839.984005627     A.U. after    8 cycles
 SCF Done:  E(RB3LYP) =  -839.984001244     A.U. after   10 cycles
 SCF Done:  E(RB3LYP) =  -839.984004780     A.U. after    8 cycles
 SCF Done:  E(RB3LYP) =  -839.984003675     A.U. after    8 cycles
 SCF Done:  E(RB3LYP) =  -839.984004204     A.U. after    7 cycles
 SCF Done:  E(RB3LYP) =  -839.984004954     A.U. after    7 cycles
 SCF Done:  E(RB3LYP) =  -839.984004814     A.U. after    7 cycles
 Optimization completed.
    -- Stationary point found.
 Normal termination of Gaussian 09 at Sun Jan 15 14:07:06 2017.

 --------------------------------------------------------------------
 #N Geom=AllCheck Guess=TCheck SCRF=Check GenChk RB3LYP/6-31G(d) Freq
 --------------------------------------------------------------------

 Structure from the checkpoint file:  "/scratch/10462934.yak.local/Gau-23126.chk"
 ------------------------------------------------
 ./boats/5/glo_1w_beta_ts_boat5_B3LYP_631Gd_r.out
 ------------------------------------------------
 Charge =  0 Multiplicity = 1

                         Standard orientation:
 ---------------------------------------------------------------------
 Center     Atomic      Atomic             Coordinates (Angstroms)
 Number     Number       Type             X           Y           Z
 ---------------------------------------------------------------------
      1          8           0        0.472870   -1.350251   -1.306141
      2          6           0       -0.092503   -0.951041    1.086805
      3          6           0        0.357326    1.429578    0.084223
      4          6           0       -0.510250    0.532726    1.004871
      5          6           0        1.792017    1.572719    0.582483
      6          6           0       -0.231302   -1.823816   -0.183078
      7          1           0       -0.415013    0.953701    2.021612
      8          1           0        0.154648   -2.810160    0.127522
      9          1           0       -0.735692   -1.421419    1.848715
     10          1           0        0.366226    1.015780   -0.929638
     11          6           0       -1.681650   -1.979923   -0.681060
     12          1           0       -1.763351   -2.886110   -1.293228
     13          1           0       -1.914886   -1.124365   -1.315647
     14          1           0        1.864408    2.189286    1.502944
     15          8           0        2.800318    1.186005    0.027671
     16          8           0       -2.680171   -1.972666    0.350454
     17          1           0       -2.577431   -2.769603    0.893629
     18          8           0       -0.089662    2.774018    0.137629
     19          1           0       -0.860971    2.863392   -0.471088
     20          8           0       -1.877600    0.662271    0.600411
     21          1           0       -2.352243   -0.170401    0.801477
     22          8           0        1.274100   -1.049090    1.491989
     23          1           0        1.338778   -0.794340    2.425406
     24          8           0        3.181866   -1.339410   -1.182265
     25          1           0        1.446931   -1.492345   -1.191988
     26          1           0        3.439792   -1.123260   -2.091712
     27          1           0        3.157510   -0.469653   -0.730015
     28          8           0       -2.371448    2.524691   -1.374587
     29          1           0       -2.466956    1.801069   -0.717834
     30          1           0       -2.165749    2.072430   -2.206899
 ---------------------------------------------------------------------

 SCF Done:  E(RB3LYP) =  -839.984004814     A.U. after    1 cycles

 The electronic state is 1-A.
 Alpha  occ. eigenvalues --  -19.18499 -19.16945 -19.16305 -19.16285 -19.14691
 Alpha  occ. eigenvalues --  -19.14681 -19.13149 -19.12873 -10.28627 -10.25331
 Alpha  occ. eigenvalues --  -10.25092 -10.24667 -10.24534 -10.23805  -1.05979
 Alpha  occ. eigenvalues --   -1.05488  -1.04366  -1.03360  -1.01251  -1.00773
 Alpha  occ. eigenvalues --   -0.99892  -0.99743  -0.78012  -0.75088  -0.70222
 Alpha  occ. eigenvalues --   -0.65195  -0.60594  -0.58274  -0.54843  -0.53534
 Alpha  occ. eigenvalues --   -0.52868  -0.52535  -0.52286  -0.50839  -0.49767
 Alpha  occ. eigenvalues --   -0.46937  -0.45677  -0.44374  -0.44086  -0.43384
 Alpha  occ. eigenvalues --   -0.42657  -0.40917  -0.40044  -0.38775  -0.37934
 Alpha  occ. eigenvalues --   -0.37627  -0.36094  -0.35242  -0.34611  -0.33703
 Alpha  occ. eigenvalues --   -0.31194  -0.30586  -0.29735  -0.29205  -0.28276
 Alpha  occ. eigenvalues --   -0.27346  -0.25929  -0.24637
 Alpha virt. eigenvalues --   -0.03478   0.03508   0.04421   0.06187   0.08008
 Alpha virt. eigenvalues --    0.10064   0.11592   0.12889   0.13437   0.14622
 Alpha virt. eigenvalues --    0.15764   0.16200   0.17109   0.18143   0.19234

 Mulliken charges:
               1
     1  O   -0.678806
     2  C    0.065056
     3  C    0.040990
     4  C    0.146831
     5  C    0.285297
     6  C    0.119411
     7  H    0.113047
     8  H    0.125451
     9  H    0.103891
    10  H    0.156301
    11  C   -0.076747
    12  H    0.154593
    13  H    0.169719
    14  H    0.127147
    15  O   -0.422242
    16  O   -0.629923
    17  H    0.404993
    18  O   -0.673679
    19  H    0.437033
    20  O   -0.691536
    21  H    0.441382
    22  O   -0.622335
    23  H    0.400555
    24  O   -0.801799
    25  H    0.441205
    26  H    0.396357
    27  H    0.441042
    28  O   -0.803382
    29  H    0.434944
    30  H    0.395206
 Sum of Mulliken charges =  -0.00000

 Dipole moment (field-independent basis, Debye):
    X=             -1.0997    Y=             -4.0197    Z=              1.2651  Tot=              4.3552
 Quadrupole moment (field-independent basis, Debye-Ang):
   XX=            -91.3085   YY=            -90.8375   ZZ=            -68.9775
   XY=             11.2805   XZ=             -2.3592   YZ=             -3.9544

  Exact polarizability: 102.026   2.251  96.373  -0.338   2.893  89.391
 Approx polarizability: 138.985  -3.228 127.893  -5.260   2.774 129.996

                      1                      2                      3
                      A                      A                      A
 Frequencies --     19.1759                37.2793                58.8644
 Red. masses --      6.1451                 4.8201                 6.4957
 Frc consts  --      0.0013                 0.0039                 0.0133
 IR Inten    --      1.6620                 2.0071                 4.8667

                      4                      5                      6
                      A                      A                      A
 Frequencies --     69.9612                98.4354               139.4763
 Red. masses --      5.4085                 6.8968                 4.9563
 Frc consts  --      0.0156                 0.0394                 0.0568
 IR Inten    --      7.8160                 7.7929                 6.6882

                      7                      8                      9
                      A                      A                      A
 Frequencies --    156.6533               161.7186               183.9122
 Red. masses --      6.1377                 3.5101                 5.6434
 Frc consts  --      0.0887                 0.0541                 0.1125
 IR Inten    --      7.6217                32.0671                 5.9797

                     10                     11                     12
                      A                      A                      A
 Frequencies --    195.8192               205.0479               216.9433
 Red. masses --      5.2197                 5.6577                 5.5256
 Frc consts  --      0.1179                 0.1402                 0.1532
 IR Inten    --     12.2797                 2.1448                11.7640

                     13                     14                     15
                      A                      A                      A
 Frequencies --    219.8735               233.8598               273.9920
 Red. masses --      5.4275                 6.1379                 1.7272
 Frc consts  --      0.1546                 0.1978                 0.0764
 IR Inten    --      5.9432                10.6850                76.8746

                     16                     17                     18
                      A                      A                      A
 Frequencies --    281.6567               293.0462               294.9813
 Red. masses --      1.3473                 1.3549                 1.3044
 Frc consts  --      0.0630                 0.0686                 0.0669
 IR Inten    --     33.8224                19.6034                99.4944

                     19                     20                     21
                      A                      A                      A
 Frequencies --    304.6684               322.5987               327.4269
 Red. masses --      2.4534                 1.3083                 2.1055
 Frc consts  --      0.1342                 0.0802                 0.1330
 IR Inten    --     17.5653                49.5783                59.0827

                     22                     23                     24
                      A                      A                      A
 Frequencies --    361.7359               367.3725               397.6790
 Red. masses --      1.6296                 2.5181                 1.3563
 Frc consts  --      0.1256                 0.2002                 0.1264
 IR Inten    --     43.8635                65.7850                89.2520

                     25                     26                     27
                      A                      A                      A
 Frequencies --    441.1671               458.3923               483.8888
 Red. masses --      3.7556                 3.5641                 3.8049
 Frc consts  --      0.4307                 0.4412                 0.5249
 IR Inten    --      0.7576                 9.4448                 2.6943

                     28                     29                     30
                      A                      A                      A
 Frequencies --    503.5204               558.6349               586.1857
 Red. masses --      6.4173                 3.6588                 1.2623
 Frc consts  --      0.9586                 0.6727                 0.2555
 IR Inten    --      7.6697                 5.1500               238.3617

                     31                     32                     33
                      A                      A                      A
 Frequencies --    596.6692               644.4934               709.5606
 Red. masses --      2.9159                 1.0816                 1.1156
 Frc consts  --      0.6116                 0.2647                 0.3309
 IR Inten    --     31.0608               249.6630               187.0391

                     34                     35                     36
                      A                      A                      A
 Frequencies --    754.5398               775.9369               904.0661
 Red. masses --      3.7460                 2.4372                 1.1425
 Frc consts  --      1.2566                 0.8645                 0.5502
 IR Inten    --     42.7959                17.3562               108.8244

                     37                     38                     39
                      A                      A                      A
 Frequencies --    936.5768               942.7909               994.9479
 Red. masses --      1.2780                 1.7497                 1.7767
 Frc consts  --      0.6605                 0.9163                 1.0363
 IR Inten    --    119.4487               102.1592                70.7496

                     40                     41                     42
                      A                      A                      A
 Frequencies --   1012.7651              1037.9023              1051.8957
 Red. masses --      2.7030                 2.6268                 3.8308
 Frc consts  --      1.6335                 1.6672                 2.4974
 IR Inten    --     73.5699                29.6864                74.8279

                     43                     44                     45
                      A                      A                      A
 Frequencies --   1079.1736              1095.0120              1100.1277
 Red. masses --      4.8361                 4.1883                 3.6012
 Frc consts  --      3.3184                 2.9589                 2.5679
 IR Inten    --     13.5420                53.8090                84.7673

                     46                     47                     48
                      A                      A                      A
 Frequencies --   1116.4921              1125.1239              1153.5994
 Red. masses --      3.2434                 3.2343                 2.4648
 Frc consts  --      2.3821                 2.4123                 1.9326
 IR Inten    --     16.5459                11.9051                15.5599

                     49                     50                     51
                      A                      A                      A
 Frequencies --   1193.4724              1251.1308              1272.0881
 Red. masses --      1.3585                 1.2212                 1.2524
 Frc consts  --      1.1401                 1.1262                 1.1941
 IR Inten    --     16.9869                52.0615                 7.7835

                     52                     53                     54
                      A                      A                      A
 Frequencies --   1289.4037              1333.8407              1340.1813
 Red. masses --      1.1770                 1.1575                 1.2130
 Frc consts  --      1.1529                 1.2133                 1.2837
 IR Inten    --     24.1562                49.9163                10.3646

                     55                     56                     57
                      A                      A                      A
 Frequencies --   1354.4506              1378.1414              1391.5901
 Red. masses --      1.2054                 1.2638                 1.1379
 Frc consts  --      1.3029                 1.4142                 1.2983
 IR Inten    --      8.6422                57.8299                32.6641

                     58                     59                     60
                      A                      A                      A
 Frequencies --   1419.1899              1424.4233              1432.5718
 Red. masses --      1.2093                 1.3714                 1.1785
 Frc consts  --      1.4350                 1.6395                 1.4249
 IR Inten    --      2.2606                24.3614                13.3142

                     61                     62                     63
                      A                      A                      A
 Frequencies --   1452.0433              1469.9712              1493.6809
 Red. masses --      1.4620                 1.3628                 1.3282
 Frc consts  --      1.8162                 1.7350                 1.7460
 IR Inten    --      4.1298                 6.8632                51.7704

                     64                     65                     66
                      A                      A                      A
 Frequencies --   1500.1158              1530.0827              1716.7526
 Red. masses --      1.3176                 1.0787                 1.0768
 Frc consts  --      1.7469                 1.4880                 1.8699
 IR Inten    --     42.7598                 1.4563                74.0329

                     67                     68                     69
                      A                      A                      A
 Frequencies --   1723.6168              1825.7055              2946.7125
 Red. masses --      1.0789                 9.9184                 1.0846
 Frc consts  --      1.8885                19.4785                 5.5487
 IR Inten    --     79.0448               198.3260                36.6795

                     70                     71                     72
                      A                      A                      A
 Frequencies --   2962.6536              2973.9434              2990.4639
 Red. masses --      1.0831                 1.0829                 1.0849
 Frc consts  --      5.6012                 5.6427                 5.7163
 IR Inten    --    101.8630                31.3975                94.8597

                     73                     74                     75
                      A                      A                      A
 Frequencies --   3066.9619              3093.2028              3158.5378
 Red. masses --      1.0693                 1.0864                 1.0980
 Frc consts  --      5.9260                 6.1243                 6.4540
 IR Inten    --     48.3274                11.3927                17.2098

                     76                     77                     78
                      A                      A                      A
 Frequencies --   3368.5814              3437.0042              3564.1158
 Red. masses --      1.0693                 1.0672                 1.0626
 Frc consts  --      7.1487                 7.4278                 7.9530
 IR Inten    --    701.5235               460.5627               554.6434

                     79                     80                     81
                      A                      A                      A
 Frequencies --   3583.2945              3597.9904              3746.4818
 Red. masses --      1.0617                 1.0551                 1.0667
 Frc consts  --      8.0317                 8.0474                 8.8217
 IR Inten    --    265.2761               421.1702                19.5803

                     82                     83                     84
                      A                      A                      A
 Frequencies --   3747.4933              3794.3235              3797.6499
 Red. masses --      1.0665                 1.0715                 1.0710
 Frc consts  --      8.8242                 9.0892                 9.1007
 IR Inten    --     24.8785                78.3802                64.8109

 - Thermochemistry -
 -------------------
 Temperature   298.150 Kelvin.  Pressure   1.00000 Atm.
 Atom     1 has atomic number  8 and mass  15.99491

 Molecular mass:   216.08452 amu.
 Principal axes and moments of inertia in atomic units:
                           1         2         3
     Eigenvalues --  2840.904193251.676404710.63646
           X            0.99999  -0.00410  -0.00021
           Y            0.00410   0.99999  -0.00186
           Z            0.00022   0.00186   1.00000
 This molecule is an asymmetric top.
 Rotational symmetry number  1.
 Warning -- assumption of classical behavior for rotation
           may cause significant error
 Rotational temperatures (Kelvin)      0.03049     0.02664     0.01839
 Rotational constants (GHZ):           0.63527     0.55502     0.38312
 Zero-point vibrational energy     645430.2 (Joules/Mol)
                                  154.26152 (Kcal/Mol)
 Warning -- explicit consideration of  31 degrees of freedom as
           vibrations may cause significant error
 Vibrational temperatures:     27.59    53.64    84.69   100.66   141.63
          (Kelvin)            200.68   225.39   232.68   264.61   281.74
                              295.02   312.13   316.35   336.47   394.21
                              405.24   421.63   424.41   438.35   464.15
                              471.09   520.46   528.57   572.17   634.74
                              659.52   696.21   724.45   803.75   843.39
                              858.47   927.28  1020.90  1085.61  1116.40
                             1300.75  1347.52  1356.46  1431.51  1457.14
                             1493.31  1513.44  1552.69  1575.48  1582.84
                             1606.38  1618.80  1659.77  1717.14  1800.10
                             1830.25  1855.16  1919.10  1928.22  1948.75
                             1982.84  2002.19  2041.90  2049.42  2061.15
                             2089.16  2114.96  2149.07  2158.33  2201.45
                             2470.02  2479.90  2626.78  4239.66  4262.59
                             4278.84  4302.61  4412.67  4450.42  4544.43
                             4846.63  4945.08  5127.96  5155.56  5176.70
                             5390.34  5391.80  5459.18  5463.96

 Zero-point correction=                           0.245831 (Hartree/Particle)
 Thermal correction to Energy=                    0.264420
 Thermal correction to Enthalpy=                  0.265364
 Thermal correction to Gibbs Free Energy=         0.199415
 Sum of electronic and zero-point Energies=           -839.738173
 Sum of electronic and thermal Energies=              -839.719585
 Sum of electronic and thermal Enthalpies=            -839.718641
 Sum of electronic and thermal Free Energies=         -839.784589

                     E (Thermal)             CV                S
                      KCal/Mol        Cal/Mol-Kelvin    Cal/Mol-Kelvin
 Total                  165.926             66.901            138.801
 Electronic               0.000              0.000              0.000
 Translational            0.889              2.981             42.015
 Rotational               0.889              2.981             32.143
 Vibrational            164.149             60.940             64.644
 Vibration     1          0.593              1.986              6.718
 Vibration     2          0.594              1.982              5.399
 Vibration     3          0.596              1.974              4.495
 Vibration     4          0.598              1.968              4.154
 Vibration     5          0.604              1.950              3.485
 Vibration     6          0.615              1.914              2.811
 Vibration     7          0.620              1.895              2.590
 Vibration     8          0.622              1.889              2.530
 Vibration     9          0.631              1.862              2.288
 Vibration    10          0.636              1.846              2.172
 Vibration    11          0.640              1.833              2.087
 Vibration    12          0.646              1.815              1.984
 Vibration    13          0.647              1.811              1.960
 Vibration    14          0.654              1.789              1.849
 Vibration    15          0.676              1.721              1.571
 Vibration    16          0.681              1.708              1.524
 Vibration    17          0.688              1.687              1.456
 Vibration    18          0.689              1.683              1.445
 Vibration    19          0.696              1.665              1.391
 Vibration    20          0.708              1.630              1.297
 Vibration    21          0.711              1.621              1.273
 Vibration    22          0.736              1.551              1.115
 Vibration    23          0.740              1.539              1.091
 Vibration    24          0.764              1.475              0.971
 Vibration    25          0.801              1.380              0.823
 Vibration    26          0.816              1.342              0.771
 Vibration    27          0.840              1.286              0.700
 Vibration    28          0.859              1.242              0.649
 Vibration    29          0.914              1.121              0.527
 Vibration    30          0.943              1.061              0.474
 Vibration    31          0.955              1.039              0.455

 Normal termination of Gaussian 09 at Sun Jan 15 14:25:01 2017.
