 Gaussian 09, Revision E.01,
 Gaussian 09:  ES64L-G09RevE.01 30-Nov-2015

 -----------------------------------------
 # opt=(MaxCycle=1000) freq B3LYP/6-31G(d)
 -----------------------------------------

 ------------------------------------------------
 ./boats/5/glo_2w_beta_ts_boat5_B3LYP_631Gd_r.out
 ------------------------------------------------
 Symbolic Z-matrix:
 Charge =  0 Multiplicity = 1

 SCF Done:  E(RB3LYP) =  -839.963900711     A.U. after   14 cycles
 SCF Done:  E(RB3LYP) =  -839.959364200     A.U. after   15 cycles
 SCF Done:  E(RB3LYP) =  -839.967728589     A.U. after   12 cycles
 SCF Done:  E(RB3LYP) =  -839.970300856     A.U. after   13 cycles
 SCF Done:  E(RB3LYP) =  -839.975639112     A.U. after   12 cycles
 SCF Done:  E(RB3LYP) =  -839.976537757     A.U. after   13 cycles
 SCF Done:  E(RB3LYP) =  -839.980686751     A.U. after   13 cycles
 SCF Done:  E(RB3LYP) =  -839.982230052     A.U. after   13 cycles
 SCF Done:  E(RB3LYP) =  -839.982562395     A.U. after   12 cycles
 SCF Done:  E(RB3LYP) =  -839.983027603     A.U. after   12 cycles
 SCF Done:  E(RB3LYP) =  -839.984075568     A.U. after    8 cycles
 SCF Done:  E(RB3LYP) =  -839.984079978     A.U. after    9 cycles
 SCF Done:  E(RB3LYP) =  -839.984082791     A.U. after    9 cycles
 SCF Done:  E(RB3LYP) =  -839.984084337     A.U. after    8 cycles
 SCF Done:  E(RB3LYP) =  -839.984084870     A.U. after    8 cycles
 SCF Done:  E(RB3LYP) =  -839.984085165     A.U. after    7 cycles
 SCF Done:  E(RB3LYP) =  -839.984085443     A.U. after    7 cycles
 SCF Done:  E(RB3LYP) =  -839.984085776     A.U. after    7 cycles
 SCF Done:  E(RB3LYP) =  -839.984085983     A.U. after    7 cycles
 Optimization completed.
    -- Stationary point found.
 Normal termination of Gaussian 09 at Sun Jan 15 12:50:31 2017.

 --------------------------------------------------------------------
 #N Geom=AllCheck Guess=TCheck SCRF=Check GenChk RB3LYP/6-31G(d) Freq
 --------------------------------------------------------------------

 Structure from the checkpoint file:  "/scratch/10462936.yak.local/Gau-29767.chk"
 ------------------------------------------------
 ./boats/5/glo_2w_beta_ts_boat5_B3LYP_631Gd_r.out
 ------------------------------------------------
 Charge =  0 Multiplicity = 1

                         Standard orientation:
 ---------------------------------------------------------------------
 Center     Atomic      Atomic             Coordinates (Angstroms)
 Number     Number       Type             X           Y           Z
 ---------------------------------------------------------------------
      1          8           0        0.179483    1.038434   -0.816970
      2          6           0       -1.333989   -0.147166    0.735497
      3          6           0        0.334693   -1.968319   -0.166489
      4          6           0       -0.251987   -1.216487    1.046923
      5          6           0        1.333058   -1.179002   -1.022769
      6          6           0       -1.166018    0.697230   -0.552330
      7          1           0       -0.781084   -1.977865    1.636075
      8          1           0       -1.486167    0.072429   -1.395390
      9          1           0       -1.345056    0.526832    1.603062
     10          1           0        0.893700   -2.826599    0.233283
     11          6           0       -2.077241    1.936580   -0.528416
     12          1           0       -1.856322    2.538797   -1.415154
     13          1           0       -1.829353    2.549904    0.357294
     14          1           0        0.969227   -0.881993   -2.021467
     15          8           0        2.486940   -1.016752   -0.669735
     16          8           0       -3.455517    1.608982   -0.573615
     17          1           0       -3.586745    0.867163    0.044195
     18          8           0       -0.797486   -2.390166   -0.926574
     19          1           0       -0.519959   -3.055396   -1.574222
     20          8           0        0.846200   -0.710037    1.809942
     21          1           0        0.526957   -0.565511    2.714550
     22          8           0       -2.629238   -0.767690    0.738251
     23          1           0       -2.621315   -1.403470    0.000218
     24          8           0        3.862509    1.438694   -0.533305
     25          1           0        2.532329    1.953524    0.608170
     26          1           0        4.635891    1.154729   -0.022892
     27          1           0        3.461483    0.599238   -0.838995
     28          8           0        1.719533    1.942027    1.169501
     29          1           0        0.597548    1.545112   -0.065522
     30          1           0        1.678378    1.018171    1.482327
 ---------------------------------------------------------------------

 SCF Done:  E(RB3LYP) =  -839.984085983     A.U. after    1 cycles

 The electronic state is 1-A.
 Alpha  occ. eigenvalues --  -19.19432 -19.18900 -19.16842 -19.16690 -19.14727
 Alpha  occ. eigenvalues --  -19.13579 -19.12482 -19.12108 -10.29621 -10.27429
 Alpha  occ. eigenvalues --  -10.27148 -10.25224 -10.23323 -10.21587  -1.07500
 Alpha  occ. eigenvalues --   -1.05881  -1.05687  -1.03986  -1.01221  -1.00550
 Alpha  occ. eigenvalues --   -0.99386  -0.97904  -0.79366  -0.74664  -0.69845
 Alpha  occ. eigenvalues --   -0.65236  -0.61345  -0.59439  -0.57685  -0.54510
 Alpha  occ. eigenvalues --   -0.52748  -0.51551  -0.50873  -0.50180  -0.49351
 Alpha  occ. eigenvalues --   -0.47410  -0.46567  -0.45860  -0.43485  -0.42675
 Alpha  occ. eigenvalues --   -0.41187  -0.40616  -0.40164  -0.39168  -0.38763
 Alpha  occ. eigenvalues --   -0.37553  -0.36665  -0.36501  -0.34465  -0.32974
 Alpha  occ. eigenvalues --   -0.32112  -0.31216  -0.29959  -0.29540  -0.28063
 Alpha  occ. eigenvalues --   -0.26768  -0.26331  -0.23913
 Alpha virt. eigenvalues --   -0.04289   0.02616   0.04508   0.07360   0.08369
 Alpha virt. eigenvalues --    0.09923   0.11360   0.11559   0.12797   0.13987
 Alpha virt. eigenvalues --    0.15217   0.15881   0.17340   0.18564   0.18706

 Mulliken charges:
               1
     1  O   -0.677572
     2  C    0.075312
     3  C    0.062042
     4  C    0.088533
     5  C    0.268622
     6  C    0.105108
     7  H    0.156515
     8  H    0.136102
     9  H    0.141382
    10  H    0.163759
    11  C   -0.038917
    12  H    0.152721
    13  H    0.117102
    14  H    0.147785
    15  O   -0.435023
    16  O   -0.643637
    17  H    0.408500
    18  O   -0.645166
    19  H    0.412928
    20  O   -0.623137
    21  H    0.414434
    22  O   -0.644408
    23  H    0.417545
    24  O   -0.800993
    25  H    0.429153
    26  H    0.395532
    27  H    0.431334
    28  O   -0.849114
    29  H    0.426474
    30  H    0.407084
 Sum of Mulliken charges =  -0.00000

 Dipole moment (field-independent basis, Debye):
    X=              1.6178    Y=             -6.2478    Z=              1.2532  Tot=              6.5744
 Quadrupole moment (field-independent basis, Debye-Ang):
   XX=            -92.9330   YY=            -83.2258   ZZ=            -76.4275
   XY=              1.9227   XZ=              0.8616   YZ=              5.8158

  Exact polarizability: 110.353   0.372  95.005   2.714   1.155  85.052
 Approx polarizability: 150.995   5.102 126.331   6.702   2.938 122.897

                      1                      2                      3
                      A                      A                      A
 Frequencies --     45.6898                53.2261                64.1407
 Red. masses --      5.6441                 7.4428                 6.6306
 Frc consts  --      0.0069                 0.0124                 0.0161
 IR Inten    --      2.7799                 0.5201                 1.6772

                      4                      5                      6
                      A                      A                      A
 Frequencies --     74.0730                92.8124               131.9073
 Red. masses --      6.2041                 7.3039                 6.7430
 Frc consts  --      0.0201                 0.0371                 0.0691
 IR Inten    --      1.4378                 0.9983                 1.0498

                      7                      8                      9
                      A                      A                      A
 Frequencies --    155.7950               164.3459               171.4856
 Red. masses --      5.0767                 4.6482                 4.2927
 Frc consts  --      0.0726                 0.0740                 0.0744
 IR Inten    --     11.7336                 2.1256                 2.4202

                     10                     11                     12
                      A                      A                      A
 Frequencies --    176.2801               204.7049               228.3007
 Red. masses --      6.1052                 4.3106                 1.2642
 Frc consts  --      0.1118                 0.1064                 0.0388
 IR Inten    --      5.5003                17.6735                76.1137

                     13                     14                     15
                      A                      A                      A
 Frequencies --    240.6345               252.8907               270.5249
 Red. masses --      3.2192                 4.3478                 3.0463
 Frc consts  --      0.1098                 0.1638                 0.1314
 IR Inten    --     56.6988                 6.4539                52.8271

                     16                     17                     18
                      A                      A                      A
 Frequencies --    278.2725               299.9398               335.1654
 Red. masses --      1.2841                 1.4487                 1.6452
 Frc consts  --      0.0586                 0.0768                 0.1089
 IR Inten    --     66.4195               102.8675                27.0638

                     19                     20                     21
                      A                      A                      A
 Frequencies --    345.3886               352.9572               359.9401
 Red. masses --      2.8218                 3.8684                 3.7925
 Frc consts  --      0.1983                 0.2839                 0.2895
 IR Inten    --     41.2263                15.7747                30.7144

                     22                     23                     24
                      A                      A                      A
 Frequencies --    370.8284               406.2925               418.5443
 Red. masses --      2.1787                 2.9288                 5.1223
 Frc consts  --      0.1765                 0.2848                 0.5287
 IR Inten    --     32.1922                 4.5893                 4.2124

                     25                     26                     27
                      A                      A                      A
 Frequencies --    453.2364               485.8248               514.0864
 Red. masses --      1.3686                 2.7030                 3.9084
 Frc consts  --      0.1656                 0.3759                 0.6086
 IR Inten    --    223.9775                22.9828                10.8895

                     28                     29                     30
                      A                      A                      A
 Frequencies --    537.5870               553.2439               579.0348
 Red. masses --      1.1466                 4.4850                 5.6494
 Frc consts  --      0.1952                 0.8088                 1.1160
 IR Inten    --     21.0202                 4.8192                 5.4336

                     31                     32                     33
                      A                      A                      A
 Frequencies --    615.4425               620.9380               673.2269
 Red. masses --      1.1132                 1.1202                 1.1386
 Frc consts  --      0.2484                 0.2545                 0.3040
 IR Inten    --    121.8339               105.1487               265.5271

                     34                     35                     36
                      A                      A                      A
 Frequencies --    708.2006               810.3668               896.9493
 Red. masses --      2.7198                 2.7439                 1.5310
 Frc consts  --      0.8037                 1.0617                 0.7257
 IR Inten    --     27.1988                 5.3874                62.5996

                     37                     38                     39
                      A                      A                      A
 Frequencies --    913.7462               970.7861              1011.1901
 Red. masses --      1.3113                 1.7645                 1.1309
 Frc consts  --      0.6450                 0.9798                 0.6813
 IR Inten    --    123.7723                36.8810               143.9458

                     40                     41                     42
                      A                      A                      A
 Frequencies --   1020.5632              1053.3528              1074.1668
 Red. masses --      2.1949                 3.9999                 3.8964
 Frc consts  --      1.3469                 2.6148                 2.6489
 IR Inten    --     10.1525                48.6498                82.6799

                     43                     44                     45
                      A                      A                      A
 Frequencies --   1087.3482              1088.9498              1095.5221
 Red. masses --      2.7422                 5.8368                 4.4271
 Frc consts  --      1.9102                 4.0780                 3.1305
 IR Inten    --     18.9085                16.8485               187.3895

                     46                     47                     48
                      A                      A                      A
 Frequencies --   1104.5753              1142.3470              1148.9780
 Red. masses --      3.3112                 2.8183                 3.3763
 Frc consts  --      2.3803                 2.1669                 2.6262
 IR Inten    --     38.0944                17.0003                10.2260

                     49                     50                     51
                      A                      A                      A
 Frequencies --   1209.6942              1243.6121              1261.4652
 Red. masses --      1.1272                 1.1447                 1.1753
 Frc consts  --      0.9719                 1.0431                 1.1019
 IR Inten    --     12.5076               117.4692                 7.9505

                     52                     53                     54
                      A                      A                      A
 Frequencies --   1268.9781              1327.4463              1337.6283
 Red. masses --      1.1923                 1.3663                 1.2824
 Frc consts  --      1.1312                 1.4185                 1.3519
 IR Inten    --     13.4060                13.7932                 3.0435

                     55                     56                     57
                      A                      A                      A
 Frequencies --   1353.9206              1371.9193              1395.1867
 Red. masses --      1.2197                 1.2253                 1.3866
 Frc consts  --      1.3173                 1.3588                 1.5902
 IR Inten    --      3.1174                 3.7205                13.5281

                     58                     59                     60
                      A                      A                      A
 Frequencies --   1405.7972              1412.0912              1431.5662
 Red. masses --      1.2746                 1.2540                 1.3342
 Frc consts  --      1.4841                 1.4732                 1.6110
 IR Inten    --      6.7270                 5.9834                 3.4182

                     61                     62                     63
                      A                      A                      A
 Frequencies --   1445.7531              1463.7637              1480.9538
 Red. masses --      1.2531                 1.4611                 1.2273
 Frc consts  --      1.5432                 1.8445                 1.5860
 IR Inten    --     19.0888                41.3331               130.6569

                     64                     65                     66
                      A                      A                      A
 Frequencies --   1496.4741              1545.2513              1730.1837
 Red. masses --      1.1504                 1.0905                 1.0797
 Frc consts  --      1.5179                 1.5341                 1.9043
 IR Inten    --     63.4314                 0.4957                82.9705

                     67                     68                     69
                      A                      A                      A
 Frequencies --   1757.0960              1794.2622              2965.7658
 Red. masses --      1.1716                 5.4152                 1.0732
 Frc consts  --      2.1311                10.2715                 5.5617
 IR Inten    --     40.2481               243.9431                51.6237

                     70                     71                     72
                      A                      A                      A
 Frequencies --   3017.0823              3027.6944              3038.7608
 Red. masses --      1.0883                 1.0842                 1.0844
 Frc consts  --      5.8370                 5.8557                 5.8997
 IR Inten    --     49.5213                20.3900                24.1274

                     73                     74                     75
                      A                      A                      A
 Frequencies --   3043.5050              3064.5504              3106.6975
 Red. masses --      1.0860                 1.0857                 1.0915
 Frc consts  --      5.9271                 6.0075                 6.2070
 IR Inten    --     25.2286                70.1886                35.9403

                     76                     77                     78
                      A                      A                      A
 Frequencies --   3231.5782              3472.0343              3610.4668
 Red. masses --      1.0711                 1.0600                 1.0543
 Frc consts  --      6.5903                 7.5284                 8.0973
 IR Inten    --    710.1185               347.8135               311.2980

                     79                     80                     81
                      A                      A                      A
 Frequencies --   3670.0320              3676.1132              3701.3528
 Red. masses --      1.0659                 1.0680                 1.0655
 Frc consts  --      8.4587                 8.5033                 8.6004
 IR Inten    --     60.6318               366.4182                41.6039

                     82                     83                     84
                      A                      A                      A
 Frequencies --   3749.6179              3763.6377              3802.2674
 Red. masses --      1.0665                 1.0669                 1.0722
 Frc consts  --      8.8343                 8.9044                 9.1334
 IR Inten    --     36.1268                39.9309                92.9696

 - Thermochemistry -
 -------------------
 Temperature   298.150 Kelvin.  Pressure   1.00000 Atm.
 Atom     1 has atomic number  8 and mass  15.99491

 Molecular mass:   216.08452 amu.
 Principal axes and moments of inertia in atomic units:
                           1         2         3
     Eigenvalues --  2313.138503889.905324841.00855
           X            0.99994   0.01092   0.00276
           Y           -0.01094   0.99993   0.00506
           Z           -0.00270  -0.00509   0.99998
 This molecule is an asymmetric top.
 Rotational symmetry number  1.
 Warning -- assumption of classical behavior for rotation
           may cause significant error
 Rotational temperatures (Kelvin)      0.03744     0.02227     0.01789
 Rotational constants (GHZ):           0.78021     0.46396     0.37280
 Zero-point vibrational energy     647945.3 (Joules/Mol)
                                  154.86265 (Kcal/Mol)
 Warning -- explicit consideration of  31 degrees of freedom as
           vibrations may cause significant error
 Vibrational temperatures:     65.74    76.58    92.28   106.57   133.54
          (Kelvin)            189.78   224.15   236.46   246.73   253.63
                              294.52   328.47   346.22   363.85   389.22
                              400.37   431.55   482.23   496.94   507.83
                              517.87   533.54   584.56   602.19   652.11
                              698.99   739.65   773.47   795.99   833.10
                              885.48   893.39   968.62  1018.94  1165.94
                             1290.51  1314.68  1396.74  1454.88  1468.36
                             1515.54  1545.48  1564.45  1566.75  1576.21
                             1589.24  1643.58  1653.12  1740.48  1789.28
                             1814.96  1825.77  1909.90  1924.55  1947.99
                             1973.88  2007.36  2022.63  2031.68  2059.70
                             2080.11  2106.03  2130.76  2153.09  2223.27
                             2489.35  2528.07  2581.54  4267.07  4340.90
                             4356.17  4372.09  4378.92  4409.20  4469.84
                             4649.51  4995.48  5194.65  5280.35  5289.10
                             5325.41  5394.86  5415.03  5470.61

 Zero-point correction=                           0.246789 (Hartree/Particle)
 Thermal correction to Energy=                    0.264980
 Thermal correction to Enthalpy=                  0.265924
 Thermal correction to Gibbs Free Energy=         0.201744
 Sum of electronic and zero-point Energies=           -839.737297
 Sum of electronic and thermal Energies=              -839.719106
 Sum of electronic and thermal Enthalpies=            -839.718162
 Sum of electronic and thermal Free Energies=         -839.782342

                     E (Thermal)             CV                S
                      KCal/Mol        Cal/Mol-Kelvin    Cal/Mol-Kelvin
 Total                  166.277             66.298            135.077
 Electronic               0.000              0.000              0.000
 Translational            0.889              2.981             42.015
 Rotational               0.889              2.981             32.144
 Vibrational            164.500             60.337             60.919
 Vibration     1          0.595              1.979              4.996
 Vibration     2          0.596              1.976              4.694
 Vibration     3          0.597              1.971              4.326
 Vibration     4          0.599              1.966              4.042
 Vibration     5          0.602              1.954              3.600
 Vibration     6          0.612              1.921              2.918
 Vibration     7          0.620              1.896              2.600
 Vibration     8          0.623              1.886              2.499
 Vibration     9          0.626              1.878              2.419
 Vibration    10          0.628              1.872              2.367
 Vibration    11          0.640              1.833              2.090
 Vibration    12          0.651              1.798              1.892
 Vibration    13          0.658              1.778              1.798
 Vibration    14          0.664              1.758              1.710
 Vibration    15          0.674              1.727              1.593
 Vibration    16          0.679              1.714              1.544
 Vibration    17          0.692              1.674              1.417
 Vibration    18          0.716              1.605              1.235
 Vibration    19          0.724              1.585              1.187
 Vibration    20          0.729              1.569              1.153
 Vibration    21          0.734              1.555              1.122
 Vibration    22          0.743              1.532              1.076
 Vibration    23          0.771              1.457              0.940
 Vibration    24          0.781              1.430              0.897
 Vibration    25          0.812              1.354              0.786
 Vibration    26          0.842              1.281              0.695
 Vibration    27          0.869              1.219              0.624
 Vibration    28          0.893              1.167              0.571
 Vibration    29          0.909              1.133              0.537
 Vibration    30          0.936              1.077              0.487
 Vibration    31          0.975              0.999              0.424

 Normal termination of Gaussian 09 at Sun Jan 15 13:08:19 2017.
