 Gaussian 09, Revision E.01,
 Gaussian 09:  ES64L-G09RevE.01 30-Nov-2015

 -----------------------------------------
 # opt=(MaxCycle=1000) freq B3LYP/6-31G(d)
 -----------------------------------------

 -----------------------------------------------
 ./boats/5/glo_2w_alpha_ts_boat5_B3LYP_631Gd.out
 -----------------------------------------------
 Symbolic Z-matrix:
 Charge =  0 Multiplicity = 1

 SCF Done:  E(RB3LYP) =  -839.943629073     A.U. after   14 cycles
 SCF Done:  E(RB3LYP) =  -839.946860083     A.U. after   14 cycles
 SCF Done:  E(RB3LYP) =  -839.954604818     A.U. after   13 cycles
 SCF Done:  E(RB3LYP) =  -839.962953578     A.U. after   13 cycles
 SCF Done:  E(RB3LYP) =  -839.968563169     A.U. after   13 cycles
 SCF Done:  E(RB3LYP) =  -839.969971651     A.U. after   12 cycles
 SCF Done:  E(RB3LYP) =  -839.970344788     A.U. after   13 cycles
 SCF Done:  E(RB3LYP) =  -839.971708267     A.U. after   13 cycles
 SCF Done:  E(RB3LYP) =  -839.972877182     A.U. after   13 cycles
 SCF Done:  E(RB3LYP) =  -839.973482631     A.U. after   13 cycles
 SCF Done:  E(RB3LYP) =  -839.990511319     A.U. after   11 cycles
 SCF Done:  E(RB3LYP) =  -839.990524050     A.U. after    9 cycles
 SCF Done:  E(RB3LYP) =  -839.990529445     A.U. after    8 cycles
 SCF Done:  E(RB3LYP) =  -839.990534182     A.U. after    8 cycles
 SCF Done:  E(RB3LYP) =  -839.990536910     A.U. after    8 cycles
 SCF Done:  E(RB3LYP) =  -839.990538462     A.U. after    8 cycles
 SCF Done:  E(RB3LYP) =  -839.990539212     A.U. after    8 cycles
 SCF Done:  E(RB3LYP) =  -839.990539527     A.U. after    7 cycles
 SCF Done:  E(RB3LYP) =  -839.990539602     A.U. after    7 cycles
 Optimization completed.
    -- Stationary point found.
 Normal termination of Gaussian 09 at Sun Jan 15 13:01:46 2017.

 --------------------------------------------------------------------
 #N Geom=AllCheck Guess=TCheck SCRF=Check GenChk RB3LYP/6-31G(d) Freq
 --------------------------------------------------------------------

 Structure from the checkpoint file:  "/scratch/10462939.yak.local/Gau-31819.chk"
 -----------------------------------------------
 ./boats/5/glo_2w_alpha_ts_boat5_B3LYP_631Gd.out
 -----------------------------------------------
 Charge =  0 Multiplicity = 1

                         Standard orientation:
 ---------------------------------------------------------------------
 Center     Atomic      Atomic             Coordinates (Angstroms)
 Number     Number       Type             X           Y           Z
 ---------------------------------------------------------------------
      1          8           0       -0.322930   -1.435937   -1.234928
      2          6           0       -0.858193   -0.295409    0.922704
      3          6           0        0.130173    1.725916   -0.482794
      4          6           0       -0.900695    1.208717    0.566841
      5          6           0        1.442662    0.984768   -0.430667
      6          6           0       -1.237775   -1.344824   -0.150125
      7          1           0       -0.612629    1.726343    1.495778
      8          1           0       -1.261830   -2.310364    0.387970
      9          1           0       -1.608251   -0.420523    1.721607
     10          1           0       -0.306078    1.548433   -1.475618
     11          6           0       -2.614444   -1.114838   -0.791746
     12          1           0       -2.895404   -2.008637   -1.363825
     13          1           0       -2.548748   -0.273749   -1.482475
     14          8           0       -3.633718   -0.761553    0.148554
     15          1           0       -3.781184   -1.512869    0.744047
     16          8           0        0.341181    3.110881   -0.314540
     17          1           0        1.225065    3.197307    0.088469
     18          8           0       -2.178262    1.642386    0.137080
     19          1           0       -2.853759    1.029781    0.482064
     20          8           0        0.430266   -0.530185    1.480991
     21          1           0        0.808530   -1.376885    1.163925
     22          1           0        1.442322   -0.032116   -0.833714
     23          8           0        2.474175    1.515658   -0.030895
     24          1           0        2.674487   -1.954172    0.076399
     25          8           0        1.854342   -2.519726    0.145679
     26          1           0        2.144295   -3.377461    0.489282
     27          1           0        0.424984   -1.999435   -0.950405
     28          8           0        3.957807   -0.833280   -0.026269
     29          1           0        4.395452   -0.806979   -0.890473
     30          1           0        3.599499    0.079391    0.096309
 ---------------------------------------------------------------------

 SCF Done:  E(RB3LYP) =  -839.990539602     A.U. after    1 cycles

 The electronic state is 1-A.
 Alpha  occ. eigenvalues --  -19.17656 -19.17203 -19.17105 -19.17077 -19.14934
 Alpha  occ. eigenvalues --  -19.14307 -19.13206 -19.12846 -10.28501 -10.24812
 Alpha  occ. eigenvalues --  -10.23948 -10.23923 -10.23581 -10.23342  -1.06726
 Alpha  occ. eigenvalues --   -1.04469  -1.03778  -1.02848  -1.01835  -1.01495
 Alpha  occ. eigenvalues --   -1.00790  -0.99702  -0.77203  -0.74808  -0.69473
 Alpha  occ. eigenvalues --   -0.64174  -0.60963  -0.56728  -0.55996  -0.54908
 Alpha  occ. eigenvalues --   -0.54093  -0.52783  -0.51604  -0.49658  -0.48919
 Alpha  occ. eigenvalues --   -0.47827  -0.46110  -0.44689  -0.43506  -0.43425
 Alpha  occ. eigenvalues --   -0.42562  -0.41099  -0.39887  -0.39490  -0.37402
 Alpha  occ. eigenvalues --   -0.36416  -0.35149  -0.34613  -0.33907  -0.33388
 Alpha  occ. eigenvalues --   -0.32887  -0.32442  -0.29976  -0.28749  -0.28204
 Alpha  occ. eigenvalues --   -0.26206  -0.25285  -0.24746
 Alpha virt. eigenvalues --   -0.03136   0.03368   0.04597   0.06967   0.09810
 Alpha virt. eigenvalues --    0.11247   0.11869   0.12606   0.13060   0.14643
 Alpha virt. eigenvalues --    0.16359   0.16954   0.17853   0.18596   0.19779

 Mulliken charges:
               1
     1  O   -0.656320
     2  C    0.103176
     3  C    0.071761
     4  C    0.158335
     5  C    0.243696
     6  C    0.050147
     7  H    0.138811
     8  H    0.108800
     9  H    0.111636
    10  H    0.167056
    11  C   -0.065490
    12  H    0.143871
    13  H    0.190600
    14  O   -0.623136
    15  H    0.398653
    16  O   -0.630744
    17  H    0.403795
    18  O   -0.657143
    19  H    0.424874
    20  O   -0.679342
    21  H    0.429180
    22  H    0.132981
    23  O   -0.466484
    24  H    0.454842
    25  O   -0.839639
    26  H    0.408981
    27  H    0.440889
    28  O   -0.814638
    29  H    0.404157
    30  H    0.446694
 Sum of Mulliken charges =  -0.00000

 Dipole moment (field-independent basis, Debye):
    X=              1.7385    Y=             -6.5325    Z=              0.0226  Tot=              6.7599
 Quadrupole moment (field-independent basis, Debye-Ang):
   XX=            -75.8561   YY=            -81.3038   ZZ=            -84.3189
   XY=              3.8837   XZ=            -10.4703   YZ=             -1.5707

  Exact polarizability: 114.906   3.778 101.179  -1.899  -0.104  76.332
 Approx polarizability: 151.645   4.554 136.827  -0.262  -0.704 116.338

                      1                      2                      3
                      A                      A                      A
 Frequencies --     41.7008                57.7339                68.4152
 Red. masses --      5.9562                 6.0094                 7.1008
 Frc consts  --      0.0061                 0.0118                 0.0196
 IR Inten    --      0.8612                 2.4148                 2.2947

                      4                      5                      6
                      A                      A                      A
 Frequencies --     88.7899               125.7519               140.2534
 Red. masses --      6.6240                 6.6662                 6.7224
 Frc consts  --      0.0308                 0.0621                 0.0779
 IR Inten    --      0.5679                 8.8141                 1.1604

                      7                      8                      9
                      A                      A                      A
 Frequencies --    152.8375               175.3255               185.7034
 Red. masses --      4.6391                 4.0596                 6.3493
 Frc consts  --      0.0638                 0.0735                 0.1290
 IR Inten    --      2.7071                15.3892                 8.1456

                     10                     11                     12
                      A                      A                      A
 Frequencies --    189.9741               202.0041               213.1187
 Red. masses --      2.3666                 4.4382                 2.7263
 Frc consts  --      0.0503                 0.1067                 0.0730
 IR Inten    --      7.8414                16.8909                11.1910

                     13                     14                     15
                      A                      A                      A
 Frequencies --    225.4467               233.5367               283.2537
 Red. masses --      2.4585                 3.4605                 5.2230
 Frc consts  --      0.0736                 0.1112                 0.2469
 IR Inten    --     23.6604                 8.0564                 2.1735

                     16                     17                     18
                      A                      A                      A
 Frequencies --    292.1023               310.9729               321.3995
 Red. masses --      2.8550                 2.1476                 1.3963
 Frc consts  --      0.1435                 0.1224                 0.0850
 IR Inten    --     12.3308                48.7318                85.2073

                     19                     20                     21
                      A                      A                      A
 Frequencies --    336.9348               341.3824               348.2642
 Red. masses --      2.8160                 2.3799                 1.6812
 Frc consts  --      0.1884                 0.1634                 0.1201
 IR Inten    --     66.9817                16.1907               119.6144

                     22                     23                     24
                      A                      A                      A
 Frequencies --    386.7497               428.5719               440.3972
 Red. masses --      3.6769                 1.1021                 3.1391
 Frc consts  --      0.3240                 0.1193                 0.3587
 IR Inten    --     32.7322                19.7026                16.5253

                     25                     26                     27
                      A                      A                      A
 Frequencies --    455.4186               472.9786               494.7764
 Red. masses --      2.9201                 2.8779                 1.0645
 Frc consts  --      0.3568                 0.3793                 0.1535
 IR Inten    --     13.8277                 1.4629                31.4029

                     28                     29                     30
                      A                      A                      A
 Frequencies --    504.7630               566.9168               589.7115
 Red. masses --      5.1298                 2.0501                 1.5283
 Frc consts  --      0.7701                 0.3882                 0.3131
 IR Inten    --     11.4874               154.9910                56.1009

                     31                     32                     33
                      A                      A                      A
 Frequencies --    639.8714               743.4534               765.5626
 Red. masses --      1.1207                 2.8964                 2.7783
 Frc consts  --      0.2704                 0.9432                 0.9594
 IR Inten    --    235.7261                34.1006                41.1828

                     34                     35                     36
                      A                      A                      A
 Frequencies --    786.1839               803.8323               837.1782
 Red. masses --      1.4169                 1.7686                 1.4869
 Frc consts  --      0.5160                 0.6733                 0.6140
 IR Inten    --    118.3582               192.4365                48.0296

                     37                     38                     39
                      A                      A                      A
 Frequencies --    883.4646               953.1358               973.7533
 Red. masses --      1.9292                 1.1396                 2.9894
 Frc consts  --      0.8871                 0.6100                 1.6701
 IR Inten    --     35.1076               102.6741                50.2468

                     40                     41                     42
                      A                      A                      A
 Frequencies --    996.6929              1017.4075              1037.6635
 Red. masses --      1.7977                 2.0617                 2.7475
 Frc consts  --      1.0522                 1.2573                 1.7430
 IR Inten    --     48.8017                60.8399                47.4273

                     43                     44                     45
                      A                      A                      A
 Frequencies --   1084.0762              1092.6415              1119.3880
 Red. masses --      4.8203                 3.2529                 4.0147
 Frc consts  --      3.3377                 2.2881                 2.9639
 IR Inten    --     11.2396               147.0858                33.9819

                     46                     47                     48
                      A                      A                      A
 Frequencies --   1127.0879              1136.7631              1168.8529
 Red. masses --      3.3567                 3.0951                 3.3251
 Frc consts  --      2.5124                 2.3564                 2.6765
 IR Inten    --     12.7170                72.9409                14.6763

                     49                     50                     51
                      A                      A                      A
 Frequencies --   1187.4886              1266.7197              1285.7640
 Red. masses --      1.2216                 1.2841                 1.2253
 Frc consts  --      1.0149                 1.2140                 1.1935
 IR Inten    --     35.4417                41.4156                 6.2997

                     52                     53                     54
                      A                      A                      A
 Frequencies --   1316.6192              1330.5307              1349.3040
 Red. masses --      1.2055                 1.1495                 1.2019
 Frc consts  --      1.2313                 1.1990                 1.2893
 IR Inten    --     27.6608                21.6402                15.9646

                     55                     56                     57
                      A                      A                      A
 Frequencies --   1354.2263              1370.4675              1384.0183
 Red. masses --      1.1466                 1.1754                 1.2562
 Frc consts  --      1.2389                 1.3007                 1.4177
 IR Inten    --      8.9515                51.6129                35.3403

                     58                     59                     60
                      A                      A                      A
 Frequencies --   1403.1524              1417.2970              1430.1444
 Red. masses --      1.1926                 1.2867                 1.3243
 Frc consts  --      1.3834                 1.5229                 1.5958
 IR Inten    --     86.1845                23.5473                11.1896

                     61                     62                     63
                      A                      A                      A
 Frequencies --   1450.4318              1465.5052              1469.2068
 Red. masses --      1.3297                 1.4201                 1.4261
 Frc consts  --      1.6481                 1.7970                 1.8136
 IR Inten    --     55.0756                44.5858                 9.4130

                     64                     65                     66
                      A                      A                      A
 Frequencies --   1490.0403              1528.3687              1721.2347
 Red. masses --      1.3118                 1.0816                 1.0804
 Frc consts  --      1.7160                 1.4886                 1.8859
 IR Inten    --     24.8570                 3.4558               115.5834

                     67                     68                     69
                      A                      A                      A
 Frequencies --   1746.0694              1761.2103              2949.4947
 Red. masses --      1.1137                 6.5516                 1.0828
 Frc consts  --      2.0005                11.9734                 5.5499
 IR Inten    --      5.2885               220.2854                44.9701

                     70                     71                     72
                      A                      A                      A
 Frequencies --   2980.7297              3001.9099              3047.6804
 Red. masses --      1.0829                 1.0838                 1.0839
 Frc consts  --      5.6688                 5.7546                 5.9315
 IR Inten    --     80.2384                43.2517                18.5721

                     73                     74                     75
                      A                      A                      A
 Frequencies --   3053.2768              3137.4273              3163.7735
 Red. masses --      1.0710                 1.0883                 1.0960
 Frc consts  --      5.8825                 6.3120                 6.4637
 IR Inten    --     55.6697                16.1222                 8.7582

                     76                     77                     78
                      A                      A                      A
 Frequencies --   3248.0973              3460.9564              3547.9256
 Red. masses --      1.0650                 1.0604                 1.0689
 Frc consts  --      6.6199                 7.4836                 7.9274
 IR Inten    --    747.4546               645.0326               120.9006

                     79                     80                     81
                      A                      A                      A
 Frequencies --   3607.7003              3655.6262              3658.0363
 Red. masses --      1.0668                 1.0668                 1.0653
 Frc consts  --      8.1809                 8.3999                 8.3985
 IR Inten    --    614.9729               180.3874                18.5893

                     82                     83                     84
                      A                      A                      A
 Frequencies --   3743.0106              3799.5999              3805.3619
 Red. masses --      1.0664                 1.0680                 1.0668
 Frc consts  --      8.8024                 9.0842                 9.1020
 IR Inten    --     17.7805                68.9887                50.6928

 - Thermochemistry -
 -------------------
 Temperature   298.150 Kelvin.  Pressure   1.00000 Atm.
 Atom     1 has atomic number  8 and mass  15.99491

 Molecular mass:   216.08452 amu.
 Principal axes and moments of inertia in atomic units:
                           1         2         3
     Eigenvalues --  2330.245793706.071395283.09598
           X            0.99997  -0.00648  -0.00367
           Y            0.00648   0.99998   0.00167
           Z            0.00366  -0.00169   0.99999
 This molecule is an asymmetric top.
 Rotational symmetry number  1.
 Warning -- assumption of classical behavior for rotation
           may cause significant error
 Rotational temperatures (Kelvin)      0.03717     0.02337     0.01639
 Rotational constants (GHZ):           0.77449     0.48697     0.34161
 Zero-point vibrational energy     648559.0 (Joules/Mol)
                                  155.00932 (Kcal/Mol)
 Warning -- explicit consideration of  30 degrees of freedom as
           vibrations may cause significant error
 Vibrational temperatures:     60.00    83.07    98.43   127.75   180.93
          (Kelvin)            201.79   219.90   252.25   267.19   273.33
                              290.64   306.63   324.37   336.01   407.54
                              420.27   447.42   462.42   484.77   491.17
                              501.07   556.45   616.62   633.63   655.25
                              680.51   711.87   726.24   815.67   848.46
                              920.63  1069.66  1101.47  1131.14  1156.53
                             1204.51  1271.11  1371.35  1401.01  1434.02
                             1463.82  1492.96  1559.74  1572.07  1610.55
                             1621.63  1635.55  1681.72  1708.53  1822.52
                             1849.93  1894.32  1914.33  1941.35  1948.43
                             1971.79  1991.29  2018.82  2039.17  2057.66
                             2086.85  2108.53  2113.86  2143.83  2198.98
                             2476.47  2512.20  2533.99  4243.66  4288.60
                             4319.07  4384.93  4392.98  4514.05  4551.96
                             4673.28  4979.54  5104.67  5190.67  5259.62
                             5263.09  5385.35  5466.77  5475.06

 Zero-point correction=                           0.247023 (Hartree/Particle)
 Thermal correction to Energy=                    0.265000
 Thermal correction to Enthalpy=                  0.265944
 Thermal correction to Gibbs Free Energy=         0.202472
 Sum of electronic and zero-point Energies=           -839.743517
 Sum of electronic and thermal Energies=              -839.725540
 Sum of electronic and thermal Enthalpies=            -839.724595
 Sum of electronic and thermal Free Energies=         -839.788068

                     E (Thermal)             CV                S
                      KCal/Mol        Cal/Mol-Kelvin    Cal/Mol-Kelvin
 Total                  166.290             65.890            133.589
 Electronic               0.000              0.000              0.000
 Translational            0.889              2.981             42.015
 Rotational               0.889              2.981             32.190
 Vibrational            164.513             59.929             59.385
 Vibration     1          0.594              1.981              5.177
 Vibration     2          0.596              1.974              4.533
 Vibration     3          0.598              1.969              4.198
 Vibration     4          0.602              1.957              3.687
 Vibration     5          0.611              1.927              3.010
 Vibration     6          0.615              1.913              2.800
 Vibration     7          0.619              1.900              2.637
 Vibration     8          0.627              1.873              2.378
 Vibration     9          0.632              1.859              2.270
 Vibration    10          0.633              1.854              2.228
 Vibration    11          0.639              1.837              2.115
 Vibration    12          0.644              1.821              2.017
 Vibration    13          0.650              1.802              1.915
 Vibration    14          0.654              1.790              1.852
 Vibration    15          0.682              1.705              1.514
 Vibration    16          0.687              1.688              1.462
 Vibration    17          0.700              1.653              1.357
 Vibration    18          0.707              1.633              1.303
 Vibration    19          0.718              1.602              1.227
 Vibration    20          0.721              1.593              1.206
 Vibration    21          0.726              1.579              1.174
 Vibration    22          0.755              1.498              1.013
 Vibration    23          0.790              1.408              0.863
 Vibration    24          0.800              1.382              0.825
 Vibration    25          0.814              1.349              0.780
 Vibration    26          0.830              1.310              0.729
 Vibration    27          0.850              1.262              0.671
 Vibration    28          0.860              1.239              0.646
 Vibration    29          0.923              1.103              0.510
 Vibration    30          0.947              1.054              0.468

 Normal termination of Gaussian 09 at Sun Jan 15 13:18:50 2017.
