 Gaussian 09, Revision E.01,
 Gaussian 09:  ES64L-G09RevE.01 30-Nov-2015

 -----------------------------------------
 # opt=(MaxCycle=1000) freq B3LYP/6-31G(d)
 -----------------------------------------

 ----------------------------------------------
 ./boats/5/glo_1w_beta_ts_boat5_B3LYP_631Gd.out
 ----------------------------------------------
 Symbolic Z-matrix:
 Charge =  0 Multiplicity = 1

 SCF Done:  E(RB3LYP) =  -839.958052196     A.U. after   14 cycles
 SCF Done:  E(RB3LYP) =  -839.906772225     A.U. after   13 cycles
 SCF Done:  E(RB3LYP) =  -839.966565747     A.U. after   11 cycles
 SCF Done:  E(RB3LYP) =  -839.970033555     A.U. after   11 cycles
 SCF Done:  E(RB3LYP) =  -839.973389271     A.U. after   12 cycles
 SCF Done:  E(RB3LYP) =  -839.976168645     A.U. after   12 cycles
 SCF Done:  E(RB3LYP) =  -839.980811805     A.U. after   11 cycles
 SCF Done:  E(RB3LYP) =  -839.981940172     A.U. after   11 cycles
 SCF Done:  E(RB3LYP) =  -839.981081249     A.U. after   11 cycles
 SCF Done:  E(RB3LYP) =  -839.982387536     A.U. after    9 cycles
 SCF Done:  E(RB3LYP) =  -839.983149956     A.U. after    9 cycles
 SCF Done:  E(RB3LYP) =  -839.983151625     A.U. after    9 cycles
 SCF Done:  E(RB3LYP) =  -839.983152349     A.U. after    8 cycles
 SCF Done:  E(RB3LYP) =  -839.983152506     A.U. after    7 cycles
 SCF Done:  E(RB3LYP) =  -839.983152537     A.U. after    6 cycles
 SCF Done:  E(RB3LYP) =  -839.983152585     A.U. after    7 cycles
 SCF Done:  E(RB3LYP) =  -839.983152639     A.U. after    7 cycles
 SCF Done:  E(RB3LYP) =  -839.983152667     A.U. after    6 cycles
 SCF Done:  E(RB3LYP) =  -839.983152705     A.U. after    6 cycles
 Optimization completed.
    -- Stationary point found.
 Normal termination of Gaussian 09 at Sun Jan 15 12:48:14 2017.

 --------------------------------------------------------------------
 #N Geom=AllCheck Guess=TCheck SCRF=Check GenChk RB3LYP/6-31G(d) Freq
 --------------------------------------------------------------------

 Structure from the checkpoint file:  "/scratch/10462938.yak.local/Gau-4461.chk"
 ----------------------------------------------
 ./boats/5/glo_1w_beta_ts_boat5_B3LYP_631Gd.out
 ----------------------------------------------
 Charge =  0 Multiplicity = 1

                         Standard orientation:
 ---------------------------------------------------------------------
 Center     Atomic      Atomic             Coordinates (Angstroms)
 Number     Number       Type             X           Y           Z
 ---------------------------------------------------------------------
      1          8           0        1.254454    0.499729   -0.341380
      2          6           0        0.132250   -1.267222    0.981270
      3          6           0       -1.112746    0.792554   -0.003185
      4          6           0       -1.188518   -0.696480    0.432457
      5          6           0        0.265834    1.388634    0.268797
      6          6           0        1.358161   -0.832683    0.173053
      7          1           0       -1.935892   -0.751134    1.238574
      8          1           0        2.218399   -0.891962    0.859185
      9          1           0        0.097440   -2.368542    0.960040
     10          1           0       -1.219534    0.812003   -1.098049
     11          6           0        1.613750   -1.738660   -1.041308
     12          1           0        2.448555   -1.320218   -1.621828
     13          1           0        0.729325   -1.745675   -1.682356
     14          1           0        0.475904    1.455104    1.343701
     15          8           0        0.362845    2.603904   -0.372794
     16          8           0        1.850500   -3.091315   -0.670059
     17          1           0        2.697270   -3.127988   -0.197872
     18          8           0       -2.101103    1.566709    0.632850
     19          1           0       -2.950600    1.282373    0.231090
     20          8           0       -1.664830   -1.442718   -0.707005
     21          1           0       -1.740781   -2.377640   -0.452731
     22          8           0        0.347826   -0.806183    2.315501
     23          1           0       -0.451860   -0.982780    2.836622
     24          8           0        3.140895    2.604547   -0.321417
     25          1           0        2.778171    1.699255   -0.416030
     26          1           0        3.304920    2.885886   -1.234995
     27          1           0        1.262593    2.953928   -0.190898
     28          8           0       -4.024812    0.138698   -0.872879
     29          1           0       -3.337619   -0.548137   -1.003181
     30          1           0       -4.114885    0.561693   -1.740304
 ---------------------------------------------------------------------

 SCF Done:  E(RB3LYP) =  -839.983152705     A.U. after    1 cycles

 The electronic state is 1-A.
 Alpha  occ. eigenvalues --  -19.18675 -19.16414 -19.16231 -19.16075 -19.15308
 Alpha  occ. eigenvalues --  -19.14624 -19.13412 -19.12258 -10.27705 -10.25395
 Alpha  occ. eigenvalues --  -10.25356 -10.24875 -10.23927 -10.23223  -1.06701
 Alpha  occ. eigenvalues --   -1.05222  -1.03597  -1.03109  -1.01234  -1.00406
 Alpha  occ. eigenvalues --   -1.00168  -0.99256  -0.78355  -0.76575  -0.68946
 Alpha  occ. eigenvalues --   -0.66282  -0.62503  -0.56201  -0.55737  -0.54373
 Alpha  occ. eigenvalues --   -0.53244  -0.52865  -0.52041  -0.50704  -0.50133
 Alpha  occ. eigenvalues --   -0.49423  -0.45825  -0.44953  -0.43000  -0.42441
 Alpha  occ. eigenvalues --   -0.41738  -0.40389  -0.40163  -0.38739  -0.38149
 Alpha  occ. eigenvalues --   -0.36148  -0.35787  -0.34541  -0.33451  -0.32809
 Alpha  occ. eigenvalues --   -0.31147  -0.30363  -0.29956  -0.29206  -0.28615
 Alpha  occ. eigenvalues --   -0.27642  -0.25794  -0.25012
 Alpha virt. eigenvalues --    0.03833   0.05317   0.06126   0.06665   0.07354
 Alpha virt. eigenvalues --    0.10156   0.11746   0.13253   0.13913   0.14642
 Alpha virt. eigenvalues --    0.15439   0.16335   0.17225   0.18124   0.19097

 Mulliken charges:
               1
     1  O   -0.559479
     2  C    0.074114
     3  C    0.113321
     4  C    0.079058
     5  C    0.344606
     6  C    0.138113
     7  H    0.134723
     8  H    0.135953
     9  H    0.133925
    10  H    0.135739
    11  C   -0.067274
    12  H    0.136244
    13  H    0.170912
    14  H    0.148017
    15  O   -0.639785
    16  O   -0.614358
    17  H    0.394609
    18  O   -0.659658
    19  H    0.424025
    20  O   -0.643426
    21  H    0.406756
    22  O   -0.628042
    23  H    0.397823
    24  O   -0.798668
    25  H    0.417677
    26  H    0.394300
    27  H    0.415253
    28  O   -0.807851
    29  H    0.424303
    30  H    0.399071
 Sum of Mulliken charges =  -0.00000

 Dipole moment (field-independent basis, Debye):
    X=              0.5309    Y=             -4.0506    Z=             -1.4329  Tot=              4.3292
 Quadrupole moment (field-independent basis, Debye-Ang):
   XX=            -80.6292   YY=            -88.3759   ZZ=            -77.8859
   XY=              2.7920   XZ=             -1.0736   YZ=             -9.8204

  Exact polarizability: 101.892  -1.798  99.515  -0.775  -2.242  84.358
 Approx polarizability: 129.218  -1.724 133.506   0.838  -1.773 123.870

                      1                      2                      3
                      A                      A                      A
 Frequencies --     25.0277                41.9195                60.7871
 Red. masses --      5.4592                 5.8013                 5.7500
 Frc consts  --      0.0020                 0.0060                 0.0125
 IR Inten    --      4.3491                 0.5014                 4.3691

                      4                      5                      6
                      A                      A                      A
 Frequencies --     74.3896                96.6741               121.4787
 Red. masses --      5.6490                 6.9258                 4.7746
 Frc consts  --      0.0184                 0.0381                 0.0415
 IR Inten    --      3.6802                 0.5018                 4.4150

                      7                      8                      9
                      A                      A                      A
 Frequencies --    148.2290               165.4395               179.1494
 Red. masses --      3.1681                 5.3782                 6.7403
 Frc consts  --      0.0410                 0.0867                 0.1275
 IR Inten    --      8.2862                 5.9209                 5.2523

                     10                     11                     12
                      A                      A                      A
 Frequencies --    197.5865               215.9311               241.2130
 Red. masses --      6.3760                 3.2840                 4.0691
 Frc consts  --      0.1467                 0.0902                 0.1395
 IR Inten    --      4.5218                13.6117                14.5465

                     13                     14                     15
                      A                      A                      A
 Frequencies --    266.6309               276.4422               290.7674
 Red. masses --      2.2131                 1.4577                 1.1456
 Frc consts  --      0.0927                 0.0656                 0.0571
 IR Inten    --     85.2016                89.9551               139.4042

                     16                     17                     18
                      A                      A                      A
 Frequencies --    293.2592               316.2345               327.0361
 Red. masses --      1.3320                 2.0396                 2.0174
 Frc consts  --      0.0675                 0.1202                 0.1271
 IR Inten    --     63.5143                20.7413                 1.4589

                     19                     20                     21
                      A                      A                      A
 Frequencies --    328.5359               349.1405               359.5067
 Red. masses --      1.2219                 1.4795                 2.3393
 Frc consts  --      0.0777                 0.1063                 0.1781
 IR Inten    --    196.7889                65.6925                29.6992

                     22                     23                     24
                      A                      A                      A
 Frequencies --    381.2408               417.5007               441.2947
 Red. masses --      2.9875                 3.1040                 1.3740
 Frc consts  --      0.2558                 0.3188                 0.1576
 IR Inten    --    105.3879                20.6552                19.5434

                     25                     26                     27
                      A                      A                      A
 Frequencies --    459.8455               487.3885               526.6526
 Red. masses --      3.6064                 4.6451                 3.6994
 Frc consts  --      0.4493                 0.6501                 0.6046
 IR Inten    --      0.2051                12.3925                27.5307

                     28                     29                     30
                      A                      A                      A
 Frequencies --    528.9608               580.0120               599.3423
 Red. masses --      5.2389                 4.3972                 4.7597
 Frc consts  --      0.8637                 0.8716                 1.0073
 IR Inten    --      5.1355                 7.2273                 3.6439

                     31                     32                     33
                      A                      A                      A
 Frequencies --    631.3730               714.3668               772.4884
 Red. masses --      1.1480                 1.0707                 1.0992
 Frc consts  --      0.2696                 0.3219                 0.3865
 IR Inten    --    243.5114               244.1892               144.8857

                     34                     35                     36
                      A                      A                      A
 Frequencies --    803.1386               838.9438               857.4285
 Red. masses --      2.7834                 2.5348                 1.2276
 Frc consts  --      1.0578                 1.0511                 0.5317
 IR Inten    --      4.7522                31.9347                92.2791

                     37                     38                     39
                      A                      A                      A
 Frequencies --    936.4919               965.2433              1012.1721
 Red. masses --      5.8593                 3.0583                 2.2463
 Frc consts  --      3.0276                 1.6788                 1.3559
 IR Inten    --    135.2748                57.5490                55.6627

                     40                     41                     42
                      A                      A                      A
 Frequencies --   1034.6306              1054.5876              1072.8999
 Red. masses --      4.3338                 3.2170                 2.7676
 Frc consts  --      2.7333                 2.1080                 1.8770
 IR Inten    --     14.1161               206.4992                15.2829

                     43                     44                     45
                      A                      A                      A
 Frequencies --   1087.1910              1101.5218              1109.1142
 Red. masses --      4.8190                 3.1553                 2.8675
 Frc consts  --      3.3560                 2.2557                 2.0783
 IR Inten    --     21.3734                49.7720                 6.3819

                     46                     47                     48
                      A                      A                      A
 Frequencies --   1131.8234              1136.9418              1198.8790
 Red. masses --      3.2095                 2.6211                 1.4966
 Frc consts  --      2.4224                 1.9962                 1.2674
 IR Inten    --     85.2965               118.3771                19.7762

                     49                     50                     51
                      A                      A                      A
 Frequencies --   1202.0611              1237.3833              1256.6036
 Red. masses --      2.4780                 1.1759                 1.2287
 Frc consts  --      2.1096                 1.0607                 1.1431
 IR Inten    --    128.8542                71.9804                24.8980

                     52                     53                     54
                      A                      A                      A
 Frequencies --   1274.7964              1326.2730              1349.7601
 Red. masses --      1.1503                 1.3172                 1.2736
 Frc consts  --      1.1014                 1.3651                 1.3671
 IR Inten    --     21.8752                10.0653                18.4586

                     55                     56                     57
                      A                      A                      A
 Frequencies --   1355.8577              1372.4640              1376.7064
 Red. masses --      1.2014                 1.1734                 1.2363
 Frc consts  --      1.3012                 1.3023                 1.3806
 IR Inten    --      5.7419                27.8557                 0.4588

                     58                     59                     60
                      A                      A                      A
 Frequencies --   1394.7342              1397.0113              1409.3224
 Red. masses --      1.3544                 1.2844                 1.2743
 Frc consts  --      1.5523                 1.4769                 1.4913
 IR Inten    --     45.2089                61.1498                 7.1257

                     61                     62                     63
                      A                      A                      A
 Frequencies --   1432.8176              1442.9124              1463.6864
 Red. masses --      1.3348                 1.3630                 1.5823
 Frc consts  --      1.6145                 1.6720                 1.9973
 IR Inten    --     23.2742                 6.7044                28.6381

                     64                     65                     66
                      A                      A                      A
 Frequencies --   1488.9327              1535.3140              1552.1484
 Red. masses --      1.2884                 1.0834                 1.5594
 Frc consts  --      1.6829                 1.5047                 2.2135
 IR Inten    --     19.2884                 2.4193                31.1582

                     67                     68                     69
                      A                      A                      A
 Frequencies --   1725.8952              1728.3569              2997.0028
 Red. masses --      1.0764                 1.0775                 1.0834
 Frc consts  --      1.8890                 1.8964                 5.7334
 IR Inten    --     43.4144                59.9597                29.4344

                     70                     71                     72
                      A                      A                      A
 Frequencies --   2999.9487              3009.1027              3020.3329
 Red. masses --      1.0838                 1.0862                 1.0831
 Frc consts  --      5.7470                 5.7946                 5.8213
 IR Inten    --     52.0186                41.9289                23.8606

                     73                     74                     75
                      A                      A                      A
 Frequencies --   3031.7954              3063.4425              3140.5722
 Red. masses --      1.0705                 1.0862                 1.0961
 Frc consts  --      5.7972                 6.0060                 6.3694
 IR Inten    --     51.5558                43.2389                14.8641

                     76                     77                     78
                      A                      A                      A
 Frequencies --   3521.4279              3535.8115              3589.0597
 Red. masses --      1.0650                 1.0639                 1.0580
 Frc consts  --      7.7810                 7.8368                 8.0296
 IR Inten    --    179.3888               129.7864               520.0255

                     79                     80                     81
                      A                      A                      A
 Frequencies --   3597.3750              3722.5802              3734.3511
 Red. masses --      1.0567                 1.0659                 1.0660
 Frc consts  --      8.0566                 8.7030                 8.7589
 IR Inten    --    399.3601                17.0723                12.8355

                     82                     83                     84
                      A                      A                      A
 Frequencies --   3736.9688              3793.1048              3800.4738
 Red. masses --      1.0662                 1.0720                 1.0718
 Frc consts  --      8.7729                 9.0871                 9.1208
 IR Inten    --     16.6178                79.2097                78.0270

 - Thermochemistry -
 -------------------
 Temperature   298.150 Kelvin.  Pressure   1.00000 Atm.
 Atom     1 has atomic number  8 and mass  15.99491

 Molecular mass:   216.08452 amu.
 Principal axes and moments of inertia in atomic units:
                           1         2         3
     Eigenvalues --  2821.535063451.480874992.93895
           X            0.99971   0.02428  -0.00054
           Y           -0.02428   0.99967  -0.00888
           Z            0.00032   0.00889   0.99996
 This molecule is an asymmetric top.
 Rotational symmetry number  1.
 Warning -- assumption of classical behavior for rotation
           may cause significant error
 Rotational temperatures (Kelvin)      0.03070     0.02509     0.01735
 Rotational constants (GHZ):           0.63963     0.52289     0.36146
 Zero-point vibrational energy     651206.6 (Joules/Mol)
                                  155.64211 (Kcal/Mol)
 Warning -- explicit consideration of  30 degrees of freedom as
           vibrations may cause significant error
 Vibrational temperatures:     36.01    60.31    87.46   107.03   139.09
          (Kelvin)            174.78   213.27   238.03   257.76   284.28
                              310.68   347.05   383.62   397.74   418.35
                              421.93   454.99   470.53   472.69   502.33
                              517.25   548.52   600.69   634.92   661.61
                              701.24   757.73   761.06   834.51   862.32
                              908.40  1027.81  1111.44  1155.54  1207.05
                             1233.65  1347.40  1388.77  1456.29  1488.60
                             1517.31  1543.66  1564.22  1584.84  1595.77
                             1628.44  1635.80  1724.92  1729.50  1780.32
                             1807.97  1834.15  1908.21  1942.00  1950.77
                             1974.67  1980.77  2006.71  2009.99  2027.70
                             2061.50  2076.03  2105.92  2142.24  2208.97
                             2233.19  2483.18  2486.72  4312.01  4316.25
                             4329.42  4345.58  4362.07  4407.60  4518.58
                             5066.54  5087.24  5163.85  5175.81  5355.96
                             5372.89  5376.66  5457.42  5468.03

 Zero-point correction=                           0.248031 (Hartree/Particle)
 Thermal correction to Energy=                    0.265931
 Thermal correction to Enthalpy=                  0.266875
 Thermal correction to Gibbs Free Energy=         0.202505
 Sum of electronic and zero-point Energies=           -839.735121
 Sum of electronic and thermal Energies=              -839.717221
 Sum of electronic and thermal Enthalpies=            -839.716277
 Sum of electronic and thermal Free Energies=         -839.780648

                     E (Thermal)             CV                S
                      KCal/Mol        Cal/Mol-Kelvin    Cal/Mol-Kelvin
 Total                  166.874             65.316            135.480
 Electronic               0.000              0.000              0.000
 Translational            0.889              2.981             42.015
 Rotational               0.889              2.981             32.253
 Vibrational            165.097             59.354             61.212
 Vibration     1          0.593              1.985              6.189
 Vibration     2          0.595              1.980              5.166
 Vibration     3          0.597              1.973              4.431
 Vibration     4          0.599              1.966              4.034
 Vibration     5          0.603              1.952              3.520
 Vibration     6          0.609              1.931              3.077
 Vibration     7          0.618              1.905              2.695
 Vibration     8          0.624              1.885              2.487
 Vibration     9          0.629              1.868              2.337
 Vibration    10          0.637              1.843              2.155
 Vibration    11          0.645              1.817              1.993
 Vibration    12          0.658              1.777              1.794
 Vibration    13          0.672              1.734              1.618
 Vibration    14          0.678              1.717              1.556
 Vibration    15          0.687              1.691              1.469
 Vibration    16          0.688              1.686              1.455
 Vibration    17          0.703              1.643              1.330
 Vibration    18          0.711              1.621              1.275
 Vibration    19          0.712              1.618              1.267
 Vibration    20          0.726              1.577              1.170
 Vibration    21          0.734              1.556              1.124
 Vibration    22          0.751              1.510              1.034
 Vibration    23          0.781              1.432              0.901
 Vibration    24          0.801              1.380              0.823
 Vibration    25          0.818              1.339              0.767
 Vibration    26          0.843              1.278              0.690
 Vibration    27          0.882              1.191              0.595
 Vibration    28          0.884              1.186              0.590
 Vibration    29          0.937              1.075              0.485
 Vibration    30          0.957              1.033              0.451

 Normal termination of Gaussian 09 at Sun Jan 15 13:06:42 2017.
