 Gaussian 09, Revision E.01,
 Gaussian 09:  ES64L-G09RevE.01 30-Nov-2015

 -----------------------------------------
 # opt=(MaxCycle=1000) freq B3LYP/6-31G(d)
 -----------------------------------------

 -----------------------------------------------
 ./boats/5/glo_1w_alpha_ts_boat5_B3LYP_631Gd.out
 -----------------------------------------------
 Symbolic Z-matrix:
 Charge =  0 Multiplicity = 1

 SCF Done:  E(RB3LYP) =  -839.874832258     A.U. after   14 cycles
 SCF Done:  E(RB3LYP) =  -839.908037818     A.U. after   13 cycles
 SCF Done:  E(RB3LYP) =  -839.916859395     A.U. after   13 cycles
 SCF Done:  E(RB3LYP) =  -839.931450681     A.U. after   13 cycles
 SCF Done:  E(RB3LYP) =  -839.935969955     A.U. after   13 cycles
 SCF Done:  E(RB3LYP) =  -839.948307025     A.U. after   13 cycles
 SCF Done:  E(RB3LYP) =  -839.957826754     A.U. after   12 cycles
 SCF Done:  E(RB3LYP) =  -839.960021685     A.U. after   12 cycles
 SCF Done:  E(RB3LYP) =  -839.968104132     A.U. after   11 cycles
 SCF Done:  E(RB3LYP) =  -839.970962620     A.U. after   11 cycles
 SCF Done:  E(RB3LYP) =  -839.978204772     A.U. after    7 cycles
 SCF Done:  E(RB3LYP) =  -839.978205559     A.U. after    7 cycles
 SCF Done:  E(RB3LYP) =  -839.978206063     A.U. after    7 cycles
 SCF Done:  E(RB3LYP) =  -839.978206469     A.U. after    7 cycles
 SCF Done:  E(RB3LYP) =  -839.978206755     A.U. after    7 cycles
 SCF Done:  E(RB3LYP) =  -839.978206827     A.U. after    7 cycles
 SCF Done:  E(RB3LYP) =  -839.978206827     A.U. after    6 cycles
 SCF Done:  E(RB3LYP) =  -839.978206785     A.U. after    6 cycles
 SCF Done:  E(RB3LYP) =  -839.978206743     A.U. after    6 cycles
 Optimization completed.
    -- Stationary point found.
 Normal termination of Gaussian 09 at Sun Jan 15 13:12:19 2017.

 --------------------------------------------------------------------
 #N Geom=AllCheck Guess=TCheck SCRF=Check GenChk RB3LYP/6-31G(d) Freq
 --------------------------------------------------------------------

 Structure from the checkpoint file:  "/scratch/10462937.yak.local/Gau-27682.chk"
 -----------------------------------------------
 ./boats/5/glo_1w_alpha_ts_boat5_B3LYP_631Gd.out
 -----------------------------------------------
 Charge =  0 Multiplicity = 1

                         Standard orientation:
 ---------------------------------------------------------------------
 Center     Atomic      Atomic             Coordinates (Angstroms)
 Number     Number       Type             X           Y           Z
 ---------------------------------------------------------------------
      1          8           0       -1.312868   -0.005511   -0.927482
      2          6           0       -0.236645    0.983568    1.103779
      3          6           0        0.871936   -0.929327   -0.254056
      4          6           0        0.921007   -0.045656    1.005410
      5          6           0       -0.566769   -1.205006   -0.676219
      6          6           0       -0.965954    1.203786   -0.228209
      7          1           0        0.833395   -0.695182    1.883905
      8          1           0       -1.925705    1.696242   -0.009254
      9          1           0        0.201377    1.953948    1.377420
     10          1           0        1.411393   -0.426478   -1.060610
     11          6           0       -0.179763    2.136512   -1.170876
     12          1           0       -0.637221    2.093459   -2.168495
     13          1           0        0.860689    1.813914   -1.262513
     14          8           0       -0.131258    3.463043   -0.657063
     15          1           0       -0.993687    3.876606   -0.816574
     16          8           0        1.550061   -2.161871   -0.057209
     17          1           0        0.939853   -2.724859    0.451884
     18          8           0        2.195101    0.607774    0.980068
     19          1           0        2.369719    0.976881    1.859685
     20          8           0       -1.119765    0.528181    2.129664
     21          1           0       -1.722878    1.257781    2.341077
     22          1           0       -0.589138   -1.732174   -1.638328
     23          8           0       -1.126766   -1.986106    0.340604
     24          1           0       -2.061632   -2.166913    0.089664
     25          8           0       -3.682699   -1.549173   -0.585478
     26          1           0       -4.113574   -1.245711    0.228848
     27          1           0       -3.145680   -0.781860   -0.870183
     28          8           0        3.926996   -0.766601   -0.982076
     29          1           0        3.627670   -0.191393   -0.257180
     30          1           0        3.492133   -1.605407   -0.756548
 ---------------------------------------------------------------------

 SCF Done:  E(RB3LYP) =  -839.978206743     A.U. after    1 cycles

 The electronic state is 1-A.
 Alpha  occ. eigenvalues --  -19.17904 -19.17002 -19.16477 -19.16447 -19.16243
 Alpha  occ. eigenvalues --  -19.15526 -19.15096 -19.09232 -10.29405 -10.25881
 Alpha  occ. eigenvalues --  -10.25345 -10.25083 -10.24456 -10.24381  -1.08049
 Alpha  occ. eigenvalues --   -1.04508  -1.03861  -1.03356  -1.02524  -1.02182
 Alpha  occ. eigenvalues --   -1.00537  -0.95251  -0.79363  -0.77322  -0.69994
 Alpha  occ. eigenvalues --   -0.65994  -0.64336  -0.58647  -0.56417  -0.54595
 Alpha  occ. eigenvalues --   -0.53688  -0.52369  -0.51148  -0.50836  -0.49736
 Alpha  occ. eigenvalues --   -0.47619  -0.46485  -0.45171  -0.44399  -0.43007
 Alpha  occ. eigenvalues --   -0.42100  -0.41001  -0.40369  -0.39231  -0.38080
 Alpha  occ. eigenvalues --   -0.36604  -0.35811  -0.34662  -0.33716  -0.32613
 Alpha  occ. eigenvalues --   -0.31472  -0.31028  -0.30573  -0.29362  -0.28232
 Alpha  occ. eigenvalues --   -0.27190  -0.26506  -0.25065
 Alpha virt. eigenvalues --    0.04022   0.04904   0.05594   0.06713   0.08319
 Alpha virt. eigenvalues --    0.09903   0.10328   0.11764   0.13100   0.13946
 Alpha virt. eigenvalues --    0.15111   0.15556   0.16647   0.17528   0.18151

 Mulliken charges:
               1
     1  O   -0.540572
     2  C    0.093267
     3  C    0.073431
     4  C    0.115948
     5  C    0.314217
     6  C    0.114888
     7  H    0.162798
     8  H    0.103737
     9  H    0.148741
    10  H    0.177379
    11  C   -0.078688
    12  H    0.145883
    13  H    0.183465
    14  O   -0.609327
    15  H    0.392670
    16  O   -0.649457
    17  H    0.412638
    18  O   -0.637110
    19  H    0.404299
    20  O   -0.632369
    21  H    0.389588
    22  H    0.148094
    23  O   -0.657614
    24  H    0.423504
    25  O   -0.791377
    26  H    0.398548
    27  H    0.421193
    28  O   -0.836572
    29  H    0.404281
    30  H    0.404517
 Sum of Mulliken charges =  -0.00000

 Dipole moment (field-independent basis, Debye):
    X=             -5.5656    Y=              3.2102    Z=              3.1841  Tot=              7.1708
 Quadrupole moment (field-independent basis, Debye-Ang):
   XX=            -94.8823   YY=            -80.6389   ZZ=            -81.3481
   XY=             -7.9012   XZ=              6.4592   YZ=              0.2474

  Exact polarizability:  99.386  -1.880  98.378  -2.919   1.150  82.820
 Approx polarizability: 130.753  -0.702 132.255  -5.646   0.377 118.419

                      1                      2                      3
                      A                      A                      A
 Frequencies --     22.7429                38.7178                56.7210
 Red. masses --      5.4809                 6.7924                 5.7647
 Frc consts  --      0.0017                 0.0060                 0.0109
 IR Inten    --      6.6340                 3.9747                 6.2331

                      4                      5                      6
                      A                      A                      A
 Frequencies --     70.0086                97.5922               112.4552
 Red. masses --      5.6633                 5.1318                 3.8943
 Frc consts  --      0.0164                 0.0288                 0.0290
 IR Inten    --      6.4548                 1.7029                 3.3889

                      7                      8                      9
                      A                      A                      A
 Frequencies --    131.2111               140.3642               154.9243
 Red. masses --      4.9021                 5.6151                 6.4140
 Frc consts  --      0.0497                 0.0652                 0.0907
 IR Inten    --      5.7301                 1.4907                 1.5180

                     10                     11                     12
                      A                      A                      A
 Frequencies --    188.7487               189.5156               231.8700
 Red. masses --      3.5704                 6.0450                 3.4552
 Frc consts  --      0.0749                 0.1279                 0.1095
 IR Inten    --      6.1638                 0.6230                 3.3569

                     13                     14                     15
                      A                      A                      A
 Frequencies --    254.7242               271.1676               282.0402
 Red. masses --      1.5793                 1.4856                 1.4961
 Frc consts  --      0.0604                 0.0644                 0.0701
 IR Inten    --    122.4532                30.4120                67.3750

                     16                     17                     18
                      A                      A                      A
 Frequencies --    290.2535               302.7349               303.3362
 Red. masses --      3.0515                 1.0668                 1.2395
 Frc consts  --      0.1515                 0.0576                 0.0672
 IR Inten    --     34.5134                88.3297               151.2564

                     19                     20                     21
                      A                      A                      A
 Frequencies --    320.8779               323.6775               351.5037
 Red. masses --      1.5544                 1.9743                 1.8672
 Frc consts  --      0.0943                 0.1219                 0.1359
 IR Inten    --     15.5588                31.3537                89.2591

                     22                     23                     24
                      A                      A                      A
 Frequencies --    357.8149               414.5509               450.9896
 Red. masses --      3.3205                 3.5486                 3.2049
 Frc consts  --      0.2505                 0.3593                 0.3841
 IR Inten    --     60.1722                20.2318                40.3870

                     25                     26                     27
                      A                      A                      A
 Frequencies --    460.1992               474.6380               491.2525
 Red. masses --      1.0974                 1.2954                 4.0084
 Frc consts  --      0.1369                 0.1719                 0.5699
 IR Inten    --      6.2913                82.2283                 9.3916

                     28                     29                     30
                      A                      A                      A
 Frequencies --    514.5377               552.4667               589.5534
 Red. masses --      4.9290                 3.5905                 2.9238
 Frc consts  --      0.7689                 0.6457                 0.5987
 IR Inten    --     22.1496                20.2099               134.8109

                     31                     32                     33
                      A                      A                      A
 Frequencies --    595.5517               642.9433               695.6444
 Red. masses --      1.3603                 1.1490                 4.3347
 Frc consts  --      0.2843                 0.2798                 1.2359
 IR Inten    --    313.7322               149.6529                22.7427

                     34                     35                     36
                      A                      A                      A
 Frequencies --    813.4727               821.0504               838.8627
 Red. masses --      1.4798                 3.6842                 1.7952
 Frc consts  --      0.5770                 1.4633                 0.7443
 IR Inten    --     48.3597               117.4040                31.6087

                     37                     38                     39
                      A                      A                      A
 Frequencies --    916.9640               959.5709               986.2983
 Red. masses --      2.8519                 3.4171                 2.3532
 Frc consts  --      1.4128                 1.8538                 1.3487
 IR Inten    --     11.3587                40.1521                39.0558

                     40                     41                     42
                      A                      A                      A
 Frequencies --   1035.8342              1053.2682              1070.7134
 Red. masses --      3.4434                 3.0175                 5.3207
 Frc consts  --      2.1768                 1.9723                 3.5939
 IR Inten    --    100.1731                50.6814               151.9954

                     43                     44                     45
                      A                      A                      A
 Frequencies --   1084.9608              1091.7932              1100.9717
 Red. masses --      4.7668                 2.7926                 2.7847
 Frc consts  --      3.3060                 1.9613                 1.9887
 IR Inten    --    138.7955                 6.6795                25.5723

                     46                     47                     48
                      A                      A                      A
 Frequencies --   1120.9229              1126.1678              1164.8946
 Red. masses --      3.2556                 3.2585                 2.5883
 Frc consts  --      2.4101                 2.4348                 2.0693
 IR Inten    --     75.3202                84.9259                91.3992

                     49                     50                     51
                      A                      A                      A
 Frequencies --   1199.2769              1227.8867              1249.3623
 Red. masses --      1.4201                 1.1765                 1.1477
 Frc consts  --      1.2034                 1.0451                 1.0555
 IR Inten    --     30.2886                60.4291                35.7887

                     52                     53                     54
                      A                      A                      A
 Frequencies --   1273.3942              1319.8482              1338.6561
 Red. masses --      1.2701                 1.4195                 1.2276
 Frc consts  --      1.2134                 1.4570                 1.2961
 IR Inten    --      0.7146                32.2541                70.5240

                     55                     56                     57
                      A                      A                      A
 Frequencies --   1342.6008              1368.7262              1379.3596
 Red. masses --      1.1997                 1.3007                 1.2663
 Frc consts  --      1.2741                 1.4357                 1.4195
 IR Inten    --      7.1916                13.4426                 6.6707

                     58                     59                     60
                      A                      A                      A
 Frequencies --   1386.4959              1401.3890              1425.8309
 Red. masses --      1.4192                 1.2479                 1.1891
 Frc consts  --      1.6074                 1.4439                 1.4244
 IR Inten    --      9.4385                35.3243                 9.6413

                     61                     62                     63
                      A                      A                      A
 Frequencies --   1432.2731              1444.5750              1460.5504
 Red. masses --      1.2622                 1.5221                 1.3369
 Frc consts  --      1.5256                 1.8715                 1.6803
 IR Inten    --     28.4358                 5.4862                16.1626

                     64                     65                     66
                      A                      A                      A
 Frequencies --   1464.1426              1525.7915              1531.2963
 Red. masses --      1.3144                 1.4513                 1.0895
 Frc consts  --      1.6601                 1.9907                 1.5052
 IR Inten    --     20.0298                38.1590                 5.9470

                     67                     68                     69
                      A                      A                      A
 Frequencies --   1731.4654              1755.8944              3005.3325
 Red. masses --      1.0763                 1.0803                 1.0853
 Frc consts  --      1.9012                 1.9625                 5.7755
 IR Inten    --     56.0012               192.2193                59.1434

                     70                     71                     72
                      A                      A                      A
 Frequencies --   3030.9883              3045.3206              3059.6881
 Red. masses --      1.0849                 1.0678                 1.0867
 Frc consts  --      5.8721                 5.8348                 5.9937
 IR Inten    --     28.2720                36.7344                49.4460

                     73                     74                     75
                      A                      A                      A
 Frequencies --   3070.1638              3122.4798              3136.2729
 Red. masses --      1.0856                 1.0887                 1.0964
 Frc consts  --      6.0292                 6.2540                 6.3539
 IR Inten    --     13.3988                18.3101                 9.4877

                     76                     77                     78
                      A                      A                      A
 Frequencies --   3485.9680              3616.3966              3696.1217
 Red. masses --      1.0661                 1.0542                 1.0642
 Frc consts  --      7.6327                 8.1232                 8.5659
 IR Inten    --    369.5308               289.5845                60.8733

                     79                     80                     81
                      A                      A                      A
 Frequencies --   3702.7216              3740.6666              3742.6944
 Red. masses --      1.0481                 1.0664                 1.0665
 Frc consts  --      8.4666                 8.7913                 8.8018
 IR Inten    --     64.3804                10.7446                17.7332

                     82                     83                     84
                      A                      A                      A
 Frequencies --   3749.1346              3789.2981              3796.1082
 Red. masses --      1.0665                 1.0784                 1.0732
 Frc consts  --      8.8319                 9.1235                 9.1122
 IR Inten    --     26.3398                59.1660                70.7003

 - Thermochemistry -
 -------------------
 Temperature   298.150 Kelvin.  Pressure   1.00000 Atm.
 Atom     1 has atomic number  8 and mass  15.99491

 Molecular mass:   216.08452 amu.
 Principal axes and moments of inertia in atomic units:
                           1         2         3
     Eigenvalues --  2716.691503451.976104679.52345
           X            0.99987  -0.01602   0.00230
           Y            0.01602   0.99987  -0.00102
           Z           -0.00229   0.00106   1.00000
 This molecule is an asymmetric top.
 Rotational symmetry number  1.
 Warning -- assumption of classical behavior for rotation
           may cause significant error
 Rotational temperatures (Kelvin)      0.03188     0.02509     0.01851
 Rotational constants (GHZ):           0.66432     0.52281     0.38567
 Zero-point vibrational energy     649627.6 (Joules/Mol)
                                  155.26471 (Kcal/Mol)
 Warning -- explicit consideration of  31 degrees of freedom as
           vibrations may cause significant error
 Vibrational temperatures:     32.72    55.71    81.61   100.73   140.41
          (Kelvin)            161.80   188.78   201.95   222.90   271.57
                              272.67   333.61   366.49   390.15   405.79
                              417.61   435.57   436.43   461.67   465.70
                              505.73   514.82   596.45   648.87   662.12
                              682.90   706.80   740.30   794.88   848.23
                              856.87   925.05  1000.88  1170.40  1181.31
                             1206.93  1319.30  1380.61  1419.06  1490.33
                             1515.42  1540.52  1561.01  1570.84  1584.05
                             1612.76  1620.30  1676.02  1725.49  1766.65
                             1797.55  1832.13  1898.96  1926.03  1931.70
                             1969.29  1984.59  1994.86  2016.28  2051.45
                             2060.72  2078.42  2101.40  2106.57  2195.27
                             2203.19  2491.19  2526.34  4324.00  4360.91
                             4381.53  4402.20  4417.28  4492.55  4512.39
                             5015.52  5203.18  5317.89  5327.38  5381.98
                             5384.90  5394.16  5451.95  5461.75

 Zero-point correction=                           0.247430 (Hartree/Particle)
 Thermal correction to Energy=                    0.265875
 Thermal correction to Enthalpy=                  0.266819
 Thermal correction to Gibbs Free Energy=         0.201016
 Sum of electronic and zero-point Energies=           -839.730777
 Sum of electronic and thermal Energies=              -839.712332
 Sum of electronic and thermal Enthalpies=            -839.711387
 Sum of electronic and thermal Free Energies=         -839.777191

                     E (Thermal)             CV                S
                      KCal/Mol        Cal/Mol-Kelvin    Cal/Mol-Kelvin
 Total                  166.839             66.474            138.495
 Electronic               0.000              0.000              0.000
 Translational            0.889              2.981             42.015
 Rotational               0.889              2.981             32.151
 Vibrational            165.062             60.513             64.329
 Vibration     1          0.593              1.985              6.379
 Vibration     2          0.594              1.981              5.324
 Vibration     3          0.596              1.975              4.568
 Vibration     4          0.598              1.968              4.153
 Vibration     5          0.603              1.951              3.502
 Vibration     6          0.607              1.939              3.226
 Vibration     7          0.612              1.922              2.928
 Vibration     8          0.615              1.913              2.799
 Vibration     9          0.620              1.897              2.611
 Vibration    10          0.633              1.855              2.240
 Vibration    11          0.633              1.854              2.233
 Vibration    12          0.653              1.792              1.864
 Vibration    13          0.665              1.755              1.698
 Vibration    14          0.675              1.726              1.589
 Vibration    15          0.681              1.707              1.521
 Vibration    16          0.686              1.692              1.472
 Vibration    17          0.694              1.669              1.402
 Vibration    18          0.695              1.667              1.398
 Vibration    19          0.706              1.634              1.306
 Vibration    20          0.708              1.628              1.291
 Vibration    21          0.728              1.572              1.159
 Vibration    22          0.733              1.559              1.132
 Vibration    23          0.778              1.439              0.911
 Vibration    24          0.810              1.359              0.793
 Vibration    25          0.818              1.338              0.766
 Vibration    26          0.831              1.306              0.725
 Vibration    27          0.847              1.269              0.680
 Vibration    28          0.870              1.218              0.623
 Vibration    29          0.908              1.134              0.539
 Vibration    30          0.947              1.054              0.468
 Vibration    31          0.953              1.041              0.457

 Normal termination of Gaussian 09 at Sun Jan 15 13:30:30 2017.
