 Gaussian 09, Revision E.01,
 Gaussian 09:  ES64L-G09RevE.01 30-Nov-2015

 -----------------------------------------
 # opt=(MaxCycle=1000) freq B3LYP/6-31G(d)
 -----------------------------------------

 -------------------------------------------------
 ./boats/5/glo_1w_alpha_ts_boat5_B3LYP_631Gd_r.out
 -------------------------------------------------
 Symbolic Z-matrix:
 Charge =  0 Multiplicity = 1

 SCF Done:  E(RB3LYP) =  -839.912021408     A.U. after   15 cycles
 SCF Done:  E(RB3LYP) =  -839.906025828     A.U. after   13 cycles
 SCF Done:  E(RB3LYP) =  -839.927370700     A.U. after   11 cycles
 SCF Done:  E(RB3LYP) =  -839.938149480     A.U. after   11 cycles
 SCF Done:  E(RB3LYP) =  -839.953311966     A.U. after   12 cycles
 SCF Done:  E(RB3LYP) =  -839.955043983     A.U. after   12 cycles
 SCF Done:  E(RB3LYP) =  -839.966205493     A.U. after   11 cycles
 SCF Done:  E(RB3LYP) =  -839.965730349     A.U. after   12 cycles
 SCF Done:  E(RB3LYP) =  -839.967861178     A.U. after    9 cycles
 SCF Done:  E(RB3LYP) =  -839.969494853     A.U. after   12 cycles
 SCF Done:  E(RB3LYP) =  -839.980598115     A.U. after    7 cycles
 SCF Done:  E(RB3LYP) =  -839.980598979     A.U. after    7 cycles
 SCF Done:  E(RB3LYP) =  -839.980599843     A.U. after    7 cycles
 SCF Done:  E(RB3LYP) =  -839.980601543     A.U. after    7 cycles
 SCF Done:  E(RB3LYP) =  -839.980603268     A.U. after    7 cycles
 SCF Done:  E(RB3LYP) =  -839.980604107     A.U. after    7 cycles
 SCF Done:  E(RB3LYP) =  -839.980604727     A.U. after    7 cycles
 SCF Done:  E(RB3LYP) =  -839.980604794     A.U. after    6 cycles
 SCF Done:  E(RB3LYP) =  -839.980604748     A.U. after    7 cycles
 Optimization completed.
    -- Stationary point found.
 Normal termination of Gaussian 09 at Sun Jan 15 13:34:44 2017.

 --------------------------------------------------------------------
 #N Geom=AllCheck Guess=TCheck SCRF=Check GenChk RB3LYP/6-31G(d) Freq
 --------------------------------------------------------------------

 Structure from the checkpoint file:  "/scratch/10462933.yak.local/Gau-2199.chk"
 -------------------------------------------------
 ./boats/5/glo_1w_alpha_ts_boat5_B3LYP_631Gd_r.out
 -------------------------------------------------
 Charge =  0 Multiplicity = 1

                         Standard orientation:
 ---------------------------------------------------------------------
 Center     Atomic      Atomic             Coordinates (Angstroms)
 Number     Number       Type             X           Y           Z
 ---------------------------------------------------------------------
      1          8           0       -1.142943   -0.096309   -1.262895
      2          6           0       -0.575633    0.726773    1.008668
      3          6           0        1.034135   -0.794022   -0.339795
      4          6           0        0.714583   -0.140176    1.019612
      5          6           0       -0.258178   -1.195888   -1.046379
      6          6           0       -1.060085    1.052963   -0.405653
      7          1           0        0.555510   -0.938295    1.752632
      8          1           0       -2.091898    1.426213   -0.330068
      9          1           0       -0.342003    1.679928    1.496484
     10          1           0        1.613585   -0.097598   -0.950485
     11          6           0       -0.226211    2.171621   -1.062892
     12          1           0       -0.482998    2.215995   -2.129698
     13          1           0        0.845294    1.973109   -0.981769
     14          8           0       -0.441481    3.413991   -0.401766
     15          1           0       -1.295268    3.765979   -0.697417
     16          8           0        1.864229   -1.935031   -0.181754
     17          1           0        1.283277   -2.649104    0.136699
     18          8           0        1.856999    0.651224    1.363778
     19          1           0        1.840225    0.823810    2.317732
     20          8           0       -1.603769    0.042929    1.760232
     21          1           0       -2.157118    0.719207    2.180705
     22          1           0       -0.049141   -1.578974   -2.053564
     23          8           0       -0.812874   -2.202598   -0.236308
     24          1           0       -1.795134   -2.216466   -0.330924
     25          8           0       -3.415398   -1.467846    0.000930
     26          1           0       -2.927734   -1.016732    0.721574
     27          1           0       -3.276649   -0.869839   -0.752556
     28          8           0        4.088353   -0.088180   -0.451096
     29          1           0        3.590091    0.296834    0.289865
     30          1           0        3.773361   -1.007121   -0.439547
 ---------------------------------------------------------------------

 SCF Done:  E(RB3LYP) =  -839.980604748     A.U. after    1 cycles

 The electronic state is 1-A.
 Alpha  occ. eigenvalues --  -19.18839 -19.17891 -19.17553 -19.16855 -19.15708
 Alpha  occ. eigenvalues --  -19.15200 -19.14590 -19.09575 -10.29389 -10.26530
 Alpha  occ. eigenvalues --  -10.26331 -10.25699 -10.24863 -10.24515  -1.08224
 Alpha  occ. eigenvalues --   -1.05492  -1.04689  -1.03966  -1.02902  -1.01314
 Alpha  occ. eigenvalues --   -0.99958  -0.95588  -0.80236  -0.77452  -0.70620
 Alpha  occ. eigenvalues --   -0.66504  -0.64678  -0.58968  -0.57157  -0.54302
 Alpha  occ. eigenvalues --   -0.53199  -0.53120  -0.52112  -0.51495  -0.49402
 Alpha  occ. eigenvalues --   -0.48163  -0.46865  -0.45283  -0.45111  -0.43418
 Alpha  occ. eigenvalues --   -0.42322  -0.41773  -0.40341  -0.38680  -0.38453
 Alpha  occ. eigenvalues --   -0.37103  -0.36786  -0.34984  -0.34525  -0.32991
 Alpha  occ. eigenvalues --   -0.32184  -0.31254  -0.30787  -0.29080  -0.28670
 Alpha  occ. eigenvalues --   -0.27336  -0.26751  -0.25382
 Alpha virt. eigenvalues --    0.02992   0.04401   0.05171   0.06829   0.08702
 Alpha virt. eigenvalues --    0.09742   0.11188   0.11708   0.13602   0.14043
 Alpha virt. eigenvalues --    0.14455   0.15273   0.16307   0.17228   0.17833

 Mulliken charges:
               1
     1  O   -0.533125
     2  C    0.076629
     3  C    0.073600
     4  C    0.114794
     5  C    0.327982
     6  C    0.111064
     7  H    0.162265
     8  H    0.110555
     9  H    0.159631
    10  H    0.175020
    11  C   -0.081490
    12  H    0.149783
    13  H    0.186266
    14  O   -0.610217
    15  H    0.394615
    16  O   -0.651575
    17  H    0.416221
    18  O   -0.634476
    19  H    0.404213
    20  O   -0.637491
    21  H    0.406303
    22  H    0.143953
    23  O   -0.678324
    24  H    0.423218
    25  O   -0.809893
    26  H    0.422636
    27  H    0.403534
    28  O   -0.834527
    29  H    0.403440
    30  H    0.405397
 Sum of Mulliken charges =  -0.00000

 Dipole moment (field-independent basis, Debye):
    X=             -4.6781    Y=              2.8820    Z=              2.4055  Tot=              5.9981
 Quadrupole moment (field-independent basis, Debye-Ang):
   XX=           -105.0508   YY=            -84.2848   ZZ=            -73.4336
   XY=            -14.6840   XZ=              6.8344   YZ=              1.6699

  Exact polarizability:  98.857  -2.139  96.813  -1.774   2.275  83.653
 Approx polarizability: 131.581  -0.580 132.088  -3.158   2.472 119.335

                      1                      2                      3
                      A                      A                      A
 Frequencies --     40.5062                47.3457                75.3010
 Red. masses --      6.6657                 6.3904                 5.9560
 Frc consts  --      0.0064                 0.0084                 0.0199
 IR Inten    --      5.8671                10.9460                 7.8643

                      4                      5                      6
                      A                      A                      A
 Frequencies --     89.7738               103.9827               120.3151
 Red. masses --      6.2759                 6.0976                 3.3443
 Frc consts  --      0.0298                 0.0388                 0.0285
 IR Inten    --      0.2855                 1.9985                 4.9541

                      7                      8                      9
                      A                      A                      A
 Frequencies --    126.5453               149.4572               158.2598
 Red. masses --      6.5313                 5.8571                 5.4029
 Frc consts  --      0.0616                 0.0771                 0.0797
 IR Inten    --      6.6575                 2.6445                 5.1299

                     10                     11                     12
                      A                      A                      A
 Frequencies --    183.5577               208.0532               246.9931
 Red. masses --      3.5681                 5.2553                 3.5211
 Frc consts  --      0.0708                 0.1340                 0.1266
 IR Inten    --      8.2268                10.1842                19.8407

                     13                     14                     15
                      A                      A                      A
 Frequencies --    253.8768               275.7962               286.9214
 Red. masses --      1.3791                 2.3458                 1.7309
 Frc consts  --      0.0524                 0.1051                 0.0840
 IR Inten    --     45.6522                44.9809                62.6845

                     16                     17                     18
                      A                      A                      A
 Frequencies --    288.1929               309.1473               313.7162
 Red. masses --      1.5201                 1.6284                 1.3227
 Frc consts  --      0.0744                 0.0917                 0.0767
 IR Inten    --     31.8227                68.3477                93.0834

                     19                     20                     21
                      A                      A                      A
 Frequencies --    324.0011               348.3305               358.1472
 Red. masses --      3.2342                 1.8068                 1.8264
 Frc consts  --      0.2000                 0.1292                 0.1380
 IR Inten    --     30.9659                66.4694                61.3997

                     22                     23                     24
                      A                      A                      A
 Frequencies --    409.4480               450.4798               454.8767
 Red. masses --      4.0850                 2.6353                 1.2232
 Frc consts  --      0.4035                 0.3151                 0.1491
 IR Inten    --      9.9882                34.4882                 3.7942

                     25                     26                     27
                      A                      A                      A
 Frequencies --    474.9852               493.3209               496.4183
 Red. masses --      1.2743                 3.4608                 1.5275
 Frc consts  --      0.1694                 0.4962                 0.2218
 IR Inten    --     59.1634                 2.5963                27.8311

                     28                     29                     30
                      A                      A                      A
 Frequencies --    522.6080               541.3511               562.5459
 Red. masses --      2.2115                 2.0076                 1.8669
 Frc consts  --      0.3559                 0.3467                 0.3481
 IR Inten    --      0.8614               140.6561               238.4332

                     31                     32                     33
                      A                      A                      A
 Frequencies --    593.2442               602.3458               698.1586
 Red. masses --      1.3252                 2.4462                 4.2411
 Frc consts  --      0.2748                 0.5229                 1.2180
 IR Inten    --    339.3261                52.4352                27.3972

                     34                     35                     36
                      A                      A                      A
 Frequencies --    815.2644               831.0775               911.9294
 Red. masses --      4.5092                 2.4559                 1.9879
 Frc consts  --      1.7658                 0.9994                 0.9740
 IR Inten    --     57.8694                 7.1219                19.6733

                     37                     38                     39
                      A                      A                      A
 Frequencies --    935.6953               957.7329               981.6950
 Red. masses --      1.2993                 3.2662                 2.3669
 Frc consts  --      0.6702                 1.7651                 1.3439
 IR Inten    --     29.6486                15.0027                65.9408

                     40                     41                     42
                      A                      A                      A
 Frequencies --   1034.4187              1047.6036              1060.5637
 Red. masses --      5.0084                 3.3187                 3.0011
 Frc consts  --      3.1575                 2.1459                 1.9888
 IR Inten    --    106.1953                28.7899                92.4357

                     43                     44                     45
                      A                      A                      A
 Frequencies --   1084.3628              1089.4437              1093.7213
 Red. masses --      4.6524                 3.0207                 2.8316
 Frc consts  --      3.2231                 2.1123                 1.9957
 IR Inten    --    118.0700                41.4971                49.7071

                     46                     47                     48
                      A                      A                      A
 Frequencies --   1120.5899              1133.9970              1148.7328
 Red. masses --      3.6613                 3.0274                 2.9001
 Frc consts  --      2.7088                 2.2937                 2.2548
 IR Inten    --     65.7882               120.5119               120.3948

                     49                     50                     51
                      A                      A                      A
 Frequencies --   1201.2865              1226.3384              1255.9441
 Red. masses --      1.3727                 1.1526                 1.1810
 Frc consts  --      1.1671                 1.0213                 1.0976
 IR Inten    --     13.2686                66.7064                33.2163

                     52                     53                     54
                      A                      A                      A
 Frequencies --   1273.0862              1314.0840              1330.9285
 Red. masses --      1.2447                 1.5436                 1.1875
 Frc consts  --      1.1886                 1.5704                 1.2393
 IR Inten    --      2.9666                41.7825                63.4966

                     55                     56                     57
                      A                      A                      A
 Frequencies --   1343.3068              1368.1385              1374.2148
 Red. masses --      1.1944                 1.3748                 1.2385
 Frc consts  --      1.2698                 1.5162                 1.3780
 IR Inten    --      8.1232                15.0052                 4.2929

                     58                     59                     60
                      A                      A                      A
 Frequencies --   1375.5679              1404.0651              1419.7873
 Red. masses --      1.3257                 1.2203                 1.2032
 Frc consts  --      1.4779                 1.4174                 1.4290
 IR Inten    --      2.8920                25.6511                14.9967

                     61                     62                     63
                      A                      A                      A
 Frequencies --   1433.1436              1439.7235              1454.7304
 Red. masses --      1.2591                 1.5460                 1.4114
 Frc consts  --      1.5237                 1.8881                 1.7598
 IR Inten    --     22.8159                 6.4577                 3.9687

                     64                     65                     66
                      A                      A                      A
 Frequencies --   1463.1684              1485.0837              1531.9323
 Red. masses --      1.1883                 1.5156                 1.0861
 Frc consts  --      1.4989                 1.9694                 1.5017
 IR Inten    --     45.3782                14.5951                 3.5387

                     67                     68                     69
                      A                      A                      A
 Frequencies --   1746.2323              1752.2042              3017.4219
 Red. masses --      1.0803                 1.0807                 1.0856
 Frc consts  --      1.9408                 1.9548                 5.8235
 IR Inten    --    227.0688               144.5485                53.4784

                     70                     71                     72
                      A                      A                      A
 Frequencies --   3048.7176              3053.7545              3073.8027
 Red. masses --      1.0682                 1.0866                 1.0862
 Frc consts  --      5.8497                 5.9701                 6.0467
 IR Inten    --     26.6320                71.9226                14.4970

                     73                     74                     75
                      A                      A                      A
 Frequencies --   3079.6883              3124.1111              3142.3623
 Red. masses --      1.0861                 1.0893                 1.0957
 Frc consts  --      6.0690                 6.2642                 6.3748
 IR Inten    --     12.0560                20.0156                 8.6038

                     76                     77                     78
                      A                      A                      A
 Frequencies --   3436.4478              3602.5205              3695.5536
 Red. masses --      1.0676                 1.0554                 1.0645
 Frc consts  --      7.4280                 8.0703                 8.5656
 IR Inten    --    449.8531               268.4690                58.7102

                     79                     80                     81
                      A                      A                      A
 Frequencies --   3703.6436              3744.8182              3751.0689
 Red. masses --      1.0475                 1.0665                 1.0666
 Frc consts  --      8.4659                 8.8123                 8.8420
 IR Inten    --     58.3853                18.7372                18.9215

                     82                     83                     84
                      A                      A                      A
 Frequencies --   3751.4800              3765.5621              3788.3410
 Red. masses --      1.0668                 1.0712                 1.0789
 Frc consts  --      8.8462                 8.9491                 9.1227
 IR Inten    --     43.2504                37.9364                59.7826

 - Thermochemistry -
 -------------------
 Temperature   298.150 Kelvin.  Pressure   1.00000 Atm.
 Atom     1 has atomic number  8 and mass  15.99491

 Molecular mass:   216.08452 amu.
 Principal axes and moments of inertia in atomic units:
                           1         2         3
     Eigenvalues --  2533.064773369.023564508.11223
           X            0.99979  -0.02034   0.00162
           Y            0.02034   0.99979  -0.00389
           Z           -0.00154   0.00393   0.99999
 This molecule is an asymmetric top.
 Rotational symmetry number  1.
 Warning -- assumption of classical behavior for rotation
           may cause significant error
 Rotational temperatures (Kelvin)      0.03419     0.02571     0.01921
 Rotational constants (GHZ):           0.71247     0.53569     0.40033
 Zero-point vibrational energy     650930.6 (Joules/Mol)
                                  155.57614 (Kcal/Mol)
 Warning -- explicit consideration of  32 degrees of freedom as
           vibrations may cause significant error
 Vibrational temperatures:     58.28    68.12   108.34   129.16   149.61
          (Kelvin)            173.11   182.07   215.04   227.70   264.10
                              299.34   355.37   365.27   396.81   412.82
                              414.64   444.79   451.37   466.16   501.17
                              515.29   589.10   648.14   654.47   683.40
                              709.78   714.23   751.92   778.88   809.38
                              853.55   866.64  1004.49  1172.98  1195.73
                             1312.06  1346.26  1377.96  1412.44  1488.30
                             1507.27  1525.91  1560.15  1567.46  1573.62
                             1612.28  1631.57  1652.77  1728.38  1764.43
                             1807.02  1831.68  1890.67  1914.91  1932.72
                             1968.44  1977.19  1979.13  2020.13  2042.75
                             2061.97  2071.44  2093.03  2105.17  2136.70
                             2204.11  2512.44  2521.03  4341.39  4386.42
                             4393.67  4422.51  4430.98  4494.89  4521.15
                             4944.28  5183.22  5317.07  5328.71  5387.95
                             5396.94  5397.54  5417.80  5450.57

 Zero-point correction=                           0.247926 (Hartree/Particle)
 Thermal correction to Energy=                    0.265991
 Thermal correction to Enthalpy=                  0.266935
 Thermal correction to Gibbs Free Energy=         0.203010
 Sum of electronic and zero-point Energies=           -839.732678
 Sum of electronic and thermal Energies=              -839.714614
 Sum of electronic and thermal Enthalpies=            -839.713670
 Sum of electronic and thermal Free Energies=         -839.777595

                     E (Thermal)             CV                S
                      KCal/Mol        Cal/Mol-Kelvin    Cal/Mol-Kelvin
 Total                  166.912             66.047            134.541
 Electronic               0.000              0.000              0.000
 Translational            0.889              2.981             42.015
 Rotational               0.889              2.981             32.020
 Vibrational            165.134             60.086             60.506
 Vibration     1          0.594              1.981              5.234
 Vibration     2          0.595              1.979              4.925
 Vibration     3          0.599              1.965              4.010
 Vibration     4          0.602              1.956              3.665
 Vibration     5          0.605              1.946              3.378
 Vibration     6          0.609              1.932              3.095
 Vibration     7          0.611              1.927              2.998
 Vibration     8          0.618              1.903              2.679
 Vibration     9          0.621              1.893              2.570
 Vibration    10          0.631              1.862              2.292
 Vibration    11          0.641              1.828              2.061
 Vibration    12          0.661              1.768              1.752
 Vibration    13          0.665              1.756              1.704
 Vibration    14          0.677              1.718              1.560
 Vibration    15          0.684              1.698              1.492
 Vibration    16          0.685              1.696              1.485
 Vibration    17          0.699              1.656              1.367
 Vibration    18          0.702              1.648              1.343
 Vibration    19          0.709              1.627              1.290
 Vibration    20          0.726              1.579              1.174
 Vibration    21          0.733              1.559              1.130
 Vibration    22          0.774              1.450              0.929
 Vibration    23          0.809              1.360              0.794
 Vibration    24          0.813              1.350              0.781
 Vibration    25          0.832              1.306              0.724
 Vibration    26          0.849              1.265              0.675
 Vibration    27          0.852              1.258              0.667
 Vibration    28          0.878              1.200              0.604
 Vibration    29          0.896              1.159              0.562
 Vibration    30          0.918              1.112              0.519
 Vibration    31          0.951              1.046              0.461
 Vibration    32          0.961              1.027              0.446

 Normal termination of Gaussian 09 at Sun Jan 15 13:52:30 2017.
