 Gaussian 09, Revision E.01,
 Gaussian 09:  ES64L-G09RevE.01 30-Nov-2015

 -----------------------------------------
 # opt=(MaxCycle=1000) freq B3LYP/6-31G(d)
 -----------------------------------------

 ----------------------------------------------
 ./boats/5/glo_2w_beta_ts_boat5_B3LYP_631Gd.out
 ----------------------------------------------
 Symbolic Z-matrix:
 Charge =  0 Multiplicity = 1

 SCF Done:  E(RB3LYP) =  -839.983202676     A.U. after   14 cycles
 SCF Done:  E(RB3LYP) =  -839.988294929     A.U. after   11 cycles
 SCF Done:  E(RB3LYP) =  -839.991875220     A.U. after   12 cycles
 SCF Done:  E(RB3LYP) =  -839.993957458     A.U. after   12 cycles
 SCF Done:  E(RB3LYP) =  -839.994582495     A.U. after   11 cycles
 SCF Done:  E(RB3LYP) =  -839.994687941     A.U. after   12 cycles
 SCF Done:  E(RB3LYP) =  -839.995029741     A.U. after   11 cycles
 SCF Done:  E(RB3LYP) =  -839.995148108     A.U. after   11 cycles
 SCF Done:  E(RB3LYP) =  -839.995201032     A.U. after   10 cycles
 SCF Done:  E(RB3LYP) =  -839.995242773     A.U. after   10 cycles
 SCF Done:  E(RB3LYP) =  -839.995320931     A.U. after    8 cycles
 SCF Done:  E(RB3LYP) =  -839.995325063     A.U. after    8 cycles
 SCF Done:  E(RB3LYP) =  -839.995328071     A.U. after    9 cycles
 SCF Done:  E(RB3LYP) =  -839.995331498     A.U. after    9 cycles
 SCF Done:  E(RB3LYP) =  -839.995334652     A.U. after    9 cycles
 SCF Done:  E(RB3LYP) =  -839.995336130     A.U. after    8 cycles
 SCF Done:  E(RB3LYP) =  -839.995336800     A.U. after    7 cycles
 SCF Done:  E(RB3LYP) =  -839.995337194     A.U. after    7 cycles
 SCF Done:  E(RB3LYP) =  -839.995337390     A.U. after    7 cycles
 Optimization completed.
    -- Stationary point found.
 Normal termination of Gaussian 09 at Sun Jan 15 12:38:13 2017.

 --------------------------------------------------------------------
 #N Geom=AllCheck Guess=TCheck SCRF=Check GenChk RB3LYP/6-31G(d) Freq
 --------------------------------------------------------------------

 Structure from the checkpoint file:  "/scratch/10462940.yak.local/Gau-17878.chk"
 ----------------------------------------------
 ./boats/5/glo_2w_beta_ts_boat5_B3LYP_631Gd.out
 ----------------------------------------------
 Charge =  0 Multiplicity = 1

                         Standard orientation:
 ---------------------------------------------------------------------
 Center     Atomic      Atomic             Coordinates (Angstroms)
 Number     Number       Type             X           Y           Z
 ---------------------------------------------------------------------
      1          8           0        0.455628    0.611623   -0.510652
      2          6           0       -1.524891   -0.103356    0.699344
      3          6           0       -0.037417   -1.818564   -0.394863
      4          6           0       -0.670528   -1.378366    0.925831
      5          6           0        0.843714   -0.692343   -1.002402
      6          6           0       -0.963893    0.756395   -0.457070
      7          1           0       -1.349335   -2.172461    1.267529
      8          1           0       -1.402387    0.394496   -1.398404
      9          1           0       -1.510320    0.481054    1.628282
     10          1           0        0.605306   -2.692172   -0.237147
     11          6           0       -1.333711    2.230963   -0.313576
     12          1           0       -0.858912    2.809950   -1.112175
     13          1           0       -0.951519    2.614037    0.649025
     14          1           0        0.686215   -0.663484   -2.099340
     15          8           0        2.150473   -0.949370   -0.665034
     16          8           0       -2.735143    2.409819   -0.431918
     17          1           0       -3.170171    1.653002    0.000778
     18          8           0       -1.157881   -2.140264   -1.228651
     19          1           0       -0.827061   -2.427852   -2.093465
     20          8           0        0.386581   -1.181975    1.860809
     21          1           0       -0.012436   -0.970401    2.719172
     22          8           0       -2.901383   -0.407452    0.470566
     23          1           0       -2.920953   -0.985147   -0.314036
     24          8           0        3.845848    1.139056   -0.708517
     25          1           0        3.472286    1.273462    0.201289
     26          1           0        4.738706    0.792454   -0.559149
     27          1           0        2.743116   -0.190891   -0.919001
     28          8           0        2.337151    1.107360    1.570598
     29          1           0        1.576276    1.261234    0.976755
     30          1           0        2.251354    0.143973    1.688693
 ---------------------------------------------------------------------

 SCF Done:  E(RB3LYP) =  -839.995337390     A.U. after    1 cycles

 The electronic state is 1-A.
 Alpha  occ. eigenvalues --  -19.18159 -19.17359 -19.17215 -19.16874 -19.14492
 Alpha  occ. eigenvalues --  -19.14211 -19.13872 -19.13576 -10.29812 -10.25773
 Alpha  occ. eigenvalues --  -10.25637 -10.25337 -10.24736 -10.23235  -1.08097
 Alpha  occ. eigenvalues --   -1.05202  -1.04362  -1.03865  -1.01415  -1.00781
 Alpha  occ. eigenvalues --   -1.00257  -0.98938  -0.78839  -0.76932  -0.69519
 Alpha  occ. eigenvalues --   -0.66454  -0.62903  -0.58586  -0.57430  -0.53910
 Alpha  occ. eigenvalues --   -0.53656  -0.52244  -0.52030  -0.50781  -0.50021
 Alpha  occ. eigenvalues --   -0.48829  -0.46866  -0.45309  -0.44066  -0.42209
 Alpha  occ. eigenvalues --   -0.42043  -0.40249  -0.39574  -0.39549  -0.38616
 Alpha  occ. eigenvalues --   -0.37704  -0.36819  -0.36249  -0.33843  -0.33449
 Alpha  occ. eigenvalues --   -0.31413  -0.30836  -0.29986  -0.29332  -0.29031
 Alpha  occ. eigenvalues --   -0.27974  -0.26635  -0.25392
 Alpha virt. eigenvalues --    0.02950   0.05937   0.07347   0.07864   0.08846
 Alpha virt. eigenvalues --    0.10342   0.11201   0.12343   0.13358   0.13603
 Alpha virt. eigenvalues --    0.14046   0.15954   0.16370   0.18313   0.18397

 Mulliken charges:
               1
     1  O   -0.539916
     2  C    0.075322
     3  C    0.060745
     4  C    0.108795
     5  C    0.375907
     6  C    0.102559
     7  H    0.150465
     8  H    0.138137
     9  H    0.141071
    10  H    0.167247
    11  C   -0.029720
    12  H    0.155844
    13  H    0.124205
    14  H    0.106064
    15  O   -0.668314
    16  O   -0.640489
    17  H    0.412314
    18  O   -0.651576
    19  H    0.407772
    20  O   -0.630705
    21  H    0.404609
    22  O   -0.640596
    23  H    0.416823
    24  O   -0.811784
    25  H    0.424212
    26  H    0.393763
    27  H    0.432448
    28  O   -0.822901
    29  H    0.421381
    30  H    0.416317
 Sum of Mulliken charges =  -0.00000

 Dipole moment (field-independent basis, Debye):
    X=              0.3108    Y=             -3.8179    Z=             -0.1478  Tot=              3.8334
 Quadrupole moment (field-independent basis, Debye-Ang):
   XX=            -87.5635   YY=            -89.7794   ZZ=            -76.0366
   XY=              3.2815   XZ=             -1.0205   YZ=              4.1682

  Exact polarizability: 105.044  -0.206  90.954   0.443   2.308  87.039
 Approx polarizability: 140.657   0.652 120.968   3.815   4.399 124.809

                      1                      2                      3
                      A                      A                      A
 Frequencies --     47.3826                64.7099                68.6262
 Red. masses --      5.0190                 5.9388                 6.9379
 Frc consts  --      0.0066                 0.0147                 0.0193
 IR Inten    --      3.9525                 1.2978                 0.8849

                      4                      5                      6
                      A                      A                      A
 Frequencies --     86.9333               118.1982               133.4788
 Red. masses --      6.0313                 4.6967                 5.4706
 Frc consts  --      0.0269                 0.0387                 0.0574
 IR Inten    --      0.3558                 7.3382                 7.9396

                      7                      8                      9
                      A                      A                      A
 Frequencies --    159.5579               176.2509               196.1798
 Red. masses --      4.9830                 5.4583                 5.2121
 Frc consts  --      0.0747                 0.0999                 0.1182
 IR Inten    --      6.4449                 0.5230                14.4796

                     10                     11                     12
                      A                      A                      A
 Frequencies --    215.8099               230.6831               240.6983
 Red. masses --      2.8406                 1.6266                 2.3804
 Frc consts  --      0.0779                 0.0510                 0.0813
 IR Inten    --     11.8412                25.9830                17.8458

                     13                     14                     15
                      A                      A                      A
 Frequencies --    255.8089               264.1500               281.2890
 Red. masses --      3.5880                 3.5977                 1.4632
 Frc consts  --      0.1383                 0.1479                 0.0682
 IR Inten    --      6.3069                15.7259                34.5922

                     16                     17                     18
                      A                      A                      A
 Frequencies --    293.7533               323.9712               355.4370
 Red. masses --      1.1774                 1.7738                 5.0578
 Frc consts  --      0.0599                 0.1097                 0.3765
 IR Inten    --    201.5865                61.1655                 6.6502

                     19                     20                     21
                      A                      A                      A
 Frequencies --    360.8659               367.8138               389.9061
 Red. masses --      1.7520                 2.5316                 1.4894
 Frc consts  --      0.1344                 0.2018                 0.1334
 IR Inten    --     48.1413                25.9839                32.5873

                     22                     23                     24
                      A                      A                      A
 Frequencies --    406.4821               433.0412               458.2774
 Red. masses --      2.7999                 1.2233                 4.4566
 Frc consts  --      0.2726                 0.1352                 0.5515
 IR Inten    --     12.3851               167.3379                 1.7869

                     25                     26                     27
                      A                      A                      A
 Frequencies --    469.4966               504.4728               532.3438
 Red. masses --      3.8767                 4.5820                 3.9300
 Frc consts  --      0.5035                 0.6870                 0.6562
 IR Inten    --     21.9605                19.6078                16.4139

                     28                     29                     30
                      A                      A                      A
 Frequencies --    565.9276               574.2145               580.2731
 Red. masses --      1.3978                 2.2710                 1.3896
 Frc consts  --      0.2638                 0.4412                 0.2757
 IR Inten    --     95.4431                89.9030                89.7050

                     31                     32                     33
                      A                      A                      A
 Frequencies --    666.7275               749.7376               760.6047
 Red. masses --      6.0224                 1.0752                 1.0812
 Frc consts  --      1.5773                 0.3561                 0.3685
 IR Inten    --      7.8111               139.1270               252.0488

                     34                     35                     36
                      A                      A                      A
 Frequencies --    799.9175               860.1640               901.8155
 Red. masses --      4.6419                 2.6479                 2.7317
 Frc consts  --      1.7500                 1.1543                 1.3090
 IR Inten    --     46.7677                22.0984                19.9821

                     37                     38                     39
                      A                      A                      A
 Frequencies --    975.3743              1024.6555              1060.6764
 Red. masses --      2.4783                 2.4886                 1.6550
 Frc consts  --      1.3892                 1.5394                 1.0970
 IR Inten    --     68.6921                29.8142                69.9059

                     40                     41                     42
                      A                      A                      A
 Frequencies --   1066.8905              1070.7519              1085.3077
 Red. masses --      1.7483                 5.1379                 3.9984
 Frc consts  --      1.1725                 3.4707                 2.7748
 IR Inten    --    125.5111                21.1379                 8.8936

                     43                     44                     45
                      A                      A                      A
 Frequencies --   1094.4718              1099.4864              1105.7871
 Red. masses --      5.2868                 3.1462                 3.0714
 Frc consts  --      3.7313                 2.2409                 2.2127
 IR Inten    --    370.7254                13.6866                 4.2914

                     46                     47                     48
                      A                      A                      A
 Frequencies --   1123.2725              1141.2001              1206.2340
 Red. masses --      2.8055                 2.5411                 1.4462
 Frc consts  --      2.0856                 1.9498                 1.2398
 IR Inten    --      4.6997                10.1315                23.5674

                     49                     50                     51
                      A                      A                      A
 Frequencies --   1211.8321              1234.5981              1242.8034
 Red. masses --      1.9819                 1.1655                 1.2353
 Frc consts  --      1.7148                 1.0467                 1.1241
 IR Inten    --     96.8451                51.9992                36.1719

                     52                     53                     54
                      A                      A                      A
 Frequencies --   1273.0120              1316.3250              1322.3337
 Red. masses --      1.3172                 1.1131                 1.3230
 Frc consts  --      1.2576                 1.1363                 1.3630
 IR Inten    --      3.1594                67.6971                 6.5214

                     55                     56                     57
                      A                      A                      A
 Frequencies --   1348.6832              1355.4782              1368.9921
 Red. masses --      1.2535                 1.2957                 1.2675
 Frc consts  --      1.3434                 1.4026                 1.3996
 IR Inten    --      3.9647                10.5295                 4.0805

                     58                     59                     60
                      A                      A                      A
 Frequencies --   1389.6724              1403.8505              1417.6106
 Red. masses --      1.2474                 1.3335                 1.3965
 Frc consts  --      1.4193                 1.5484                 1.6534
 IR Inten    --     98.9726                 6.8335                 7.1455

                     61                     62                     63
                      A                      A                      A
 Frequencies --   1438.4803              1444.9687              1474.3757
 Red. masses --      1.3510                 1.2414                 1.6719
 Frc consts  --      1.6471                 1.5272                 2.1413
 IR Inten    --     16.2347                60.4253                 4.0099

                     64                     65                     66
                      A                      A                      A
 Frequencies --   1480.2204              1510.9995              1553.2998
 Red. masses --      1.2699                 1.4418                 1.0945
 Frc consts  --      1.6394                 1.9395                 1.5559
 IR Inten    --    108.5368                15.2718                 0.4596

                     67                     68                     69
                      A                      A                      A
 Frequencies --   1747.4322              1764.2178              2917.2947
 Red. masses --      1.0825                 1.0702                 1.0830
 Frc consts  --      1.9475                 1.9626                 5.4305
 IR Inten    --    279.7278                38.7433               104.5456

                     70                     71                     72
                      A                      A                      A
 Frequencies --   2977.0982              3028.0074              3035.2962
 Red. masses --      1.0730                 1.0827                 1.0854
 Frc consts  --      5.6032                 5.8489                 5.8918
 IR Inten    --     52.7327                19.3569                47.1091

                     73                     74                     75
                      A                      A                      A
 Frequencies --   3055.1578              3080.5888              3102.6484
 Red. masses --      1.0865                 1.0868                 1.0920
 Frc consts  --      5.9751                 6.0767                 6.1935
 IR Inten    --     42.7779                26.0691                34.0188

                     76                     77                     78
                      A                      A                      A
 Frequencies --   3272.0171              3394.6450              3659.3384
 Red. masses --      1.0694                 1.0618                 1.0527
 Frc consts  --      6.7454                 7.2088                 8.3055
 IR Inten    --    535.7101               890.6334               217.4696

                     79                     80                     81
                      A                      A                      A
 Frequencies --   3670.8470              3692.3085              3739.7363
 Red. masses --      1.0666                 1.0656                 1.0714
 Frc consts  --      8.4683                 8.5596                 8.8283
 IR Inten    --     82.5323                38.9811                64.8520

                     82                     83                     84
                      A                      A                      A
 Frequencies --   3747.5392              3754.9393              3791.4155
 Red. masses --      1.0664                 1.0666                 1.0674
 Frc consts  --      8.8242                 8.8602                 9.0404
 IR Inten    --     23.5166                30.2214                41.7901

 - Thermochemistry -
 -------------------
 Temperature   298.150 Kelvin.  Pressure   1.00000 Atm.
 Atom     1 has atomic number  8 and mass  15.99491

 Molecular mass:   216.08452 amu.
 Principal axes and moments of inertia in atomic units:
                           1         2         3
     Eigenvalues --  2275.167593712.869854502.65826
           X            0.99994   0.01064   0.00013
           Y           -0.01064   0.99989   0.01034
           Z           -0.00002  -0.01034   0.99995
 This molecule is an asymmetric top.
 Rotational symmetry number  1.
 Warning -- assumption of classical behavior for rotation
           may cause significant error
 Rotational temperatures (Kelvin)      0.03807     0.02333     0.01924
 Rotational constants (GHZ):           0.79323     0.48608     0.40082
 Zero-point vibrational energy     652964.7 (Joules/Mol)
                                  156.06230 (Kcal/Mol)
 Warning -- explicit consideration of  30 degrees of freedom as
           vibrations may cause significant error
 Vibrational temperatures:     68.17    93.10    98.74   125.08   170.06
          (Kelvin)            192.05   229.57   253.59   282.26   310.50
                              331.90   346.31   368.05   380.05   404.71
                              422.64   466.12   511.39   519.20   529.20
                              560.99   584.84   623.05   659.36   675.50
                              725.82   765.92   814.24   826.17   834.88
                              959.27  1078.70  1094.34  1150.90  1237.58
                             1297.51  1403.34  1474.25  1526.07  1535.02
                             1540.57  1561.51  1574.70  1581.91  1590.98
                             1616.14  1641.93  1735.50  1743.55  1776.31
                             1788.11  1831.58  1893.90  1902.54  1940.45
                             1950.23  1969.67  1999.43  2019.83  2039.62
                             2069.65  2078.99  2121.30  2129.70  2173.99
                             2234.85  2514.16  2538.31  4197.33  4283.37
                             4356.62  4367.11  4395.69  4432.27  4464.01
                             4707.70  4884.13  5264.97  5281.52  5312.40
                             5380.64  5391.87  5402.51  5454.99

 Zero-point correction=                           0.248701 (Hartree/Particle)
 Thermal correction to Energy=                    0.266048
 Thermal correction to Enthalpy=                  0.266992
 Thermal correction to Gibbs Free Energy=         0.205001
 Sum of electronic and zero-point Energies=           -839.746636
 Sum of electronic and thermal Energies=              -839.729289
 Sum of electronic and thermal Enthalpies=            -839.728345
 Sum of electronic and thermal Free Energies=         -839.790336

                     E (Thermal)             CV                S
                      KCal/Mol        Cal/Mol-Kelvin    Cal/Mol-Kelvin
 Total                  166.948             64.352            130.470
 Electronic               0.000              0.000              0.000
 Translational            0.889              2.981             42.015
 Rotational               0.889              2.981             32.009
 Vibrational            165.170             58.390             56.447
 Vibration     1          0.595              1.979              4.924
 Vibration     2          0.597              1.971              4.308
 Vibration     3          0.598              1.969              4.192
 Vibration     4          0.601              1.958              3.728
 Vibration     5          0.608              1.934              3.130
 Vibration     6          0.613              1.920              2.895
 Vibration     7          0.621              1.892              2.555
 Vibration     8          0.628              1.872              2.368
 Vibration     9          0.636              1.845              2.169
 Vibration    10          0.645              1.817              1.994
 Vibration    11          0.652              1.794              1.874
 Vibration    12          0.658              1.778              1.798
 Vibration    13          0.666              1.753              1.690
 Vibration    14          0.671              1.739              1.634
 Vibration    15          0.681              1.708              1.526
 Vibration    16          0.689              1.685              1.452
 Vibration    17          0.709              1.627              1.290
 Vibration    18          0.731              1.564              1.142
 Vibration    19          0.735              1.553              1.118
 Vibration    20          0.740              1.538              1.089
 Vibration    21          0.758              1.492              1.001
 Vibration    22          0.771              1.456              0.939
 Vibration    23          0.794              1.398              0.849
 Vibration    24          0.816              1.343              0.771
 Vibration    25          0.827              1.318              0.739
 Vibration    26          0.860              1.240              0.647
 Vibration    27          0.887              1.178              0.582
 Vibration    28          0.922              1.105              0.512
 Vibration    29          0.931              1.087              0.496
 Vibration    30          0.937              1.074              0.485

 Normal termination of Gaussian 09 at Sun Jan 15 12:55:51 2017.
