 Gaussian 09, Revision E.01,
 Gaussian 09:  ES64L-G09RevE.01 30-Nov-2015

 -----------------------------------------
 # opt=(MaxCycle=1000) freq B3LYP/6-31G(d)
 -----------------------------------------

 -------------------------------------------------
 ./boats/5/glo_2w_alpha_ts_boat5_B3LYP_631Gd_r.out
 -------------------------------------------------
 Symbolic Z-matrix:
 Charge =  0 Multiplicity = 1

 SCF Done:  E(RB3LYP) =  -839.937762523     A.U. after   14 cycles
 SCF Done:  E(RB3LYP) =  -839.884070458     A.U. after   13 cycles
 SCF Done:  E(RB3LYP) =  -839.938467881     A.U. after   11 cycles
 SCF Done:  E(RB3LYP) =  -839.938760098     A.U. after   11 cycles
 SCF Done:  E(RB3LYP) =  -839.939780055     A.U. after   12 cycles
 SCF Done:  E(RB3LYP) =  -839.940613066     A.U. after   11 cycles
 SCF Done:  E(RB3LYP) =  -839.941398775     A.U. after   12 cycles
 SCF Done:  E(RB3LYP) =  -839.942616323     A.U. after   12 cycles
 SCF Done:  E(RB3LYP) =  -839.945823390     A.U. after   12 cycles
 SCF Done:  E(RB3LYP) =  -839.951617747     A.U. after   12 cycles
 SCF Done:  E(RB3LYP) =  -840.001740882     A.U. after    9 cycles
 SCF Done:  E(RB3LYP) =  -840.001745295     A.U. after    8 cycles
 SCF Done:  E(RB3LYP) =  -840.001749168     A.U. after    8 cycles
 SCF Done:  E(RB3LYP) =  -840.001751217     A.U. after    7 cycles
 SCF Done:  E(RB3LYP) =  -840.001752408     A.U. after    7 cycles
 SCF Done:  E(RB3LYP) =  -840.001752937     A.U. after    7 cycles
 SCF Done:  E(RB3LYP) =  -840.001753097     A.U. after    6 cycles
 SCF Done:  E(RB3LYP) =  -840.001753179     A.U. after    6 cycles
 SCF Done:  E(RB3LYP) =  -840.001753193     A.U. after    6 cycles
 Optimization completed.
    -- Stationary point found.
 Normal termination of Gaussian 09 at Sun Jan 15 13:54:00 2017.

 --------------------------------------------------------------------
 #N Geom=AllCheck Guess=TCheck SCRF=Check GenChk RB3LYP/6-31G(d) Freq
 --------------------------------------------------------------------

 Structure from the checkpoint file:  "/scratch/10462935.yak.local/Gau-31853.chk"
 -------------------------------------------------
 ./boats/5/glo_2w_alpha_ts_boat5_B3LYP_631Gd_r.out
 -------------------------------------------------
 Charge =  0 Multiplicity = 1

                         Standard orientation:
 ---------------------------------------------------------------------
 Center     Atomic      Atomic             Coordinates (Angstroms)
 Number     Number       Type             X           Y           Z
 ---------------------------------------------------------------------
      1          8           0        0.393661    0.283948   -1.276484
      2          6           0       -0.198961   -0.636408    0.954862
      3          6           0       -1.842864    0.832633   -0.374572
      4          6           0       -1.650969   -0.125569    0.828851
      5          6           0       -0.512519    1.344745   -0.951846
      6          6           0        0.449417   -0.879160   -0.412689
      7          1           0       -1.881094    0.428569    1.748911
      8          1           0        1.519513   -1.068417   -0.253643
      9          1           0       -0.196853   -1.595611    1.491366
     10          1           0       -2.365647    0.263595   -1.150115
     11          6           0       -0.131770   -2.088354   -1.164510
     12          1           0        0.302665   -2.108584   -2.174824
     13          1           0       -1.215371   -2.003350   -1.257221
     14          8           0        0.103434   -3.301183   -0.457703
     15          1           0        1.057411   -3.477310   -0.475025
     16          8           0       -2.659460    1.946530   -0.066114
     17          1           0       -2.053476    2.615166    0.302347
     18          8           0       -2.574231   -1.192484    0.631320
     19          1           0       -2.522108   -1.787350    1.396434
     20          8           0        0.512228    0.348860    1.709873
     21          1           0        1.482894    0.130841    1.707212
     22          1           0       -0.700798    1.857511   -1.897558
     23          8           0        0.077235    2.300964   -0.107246
     24          1           0        3.284401    0.400967    0.557194
     25          8           0        3.086982    1.143325   -1.001216
     26          1           0        3.485482    0.653360   -1.735941
     27          1           0        2.119622    1.094495   -1.167173
     28          8           0        3.183165   -0.073478    1.423449
     29          1           0        3.704166    0.439328    2.059592
     30          1           0        0.321067    1.817607    0.720839
 ---------------------------------------------------------------------

 SCF Done:  E(RB3LYP) =  -840.001753193     A.U. after    1 cycles

 The electronic state is 1-A.
 Alpha  occ. eigenvalues --  -19.17713 -19.16506 -19.15765 -19.15715 -19.15423
 Alpha  occ. eigenvalues --  -19.15389 -19.14789 -19.13879 -10.28924 -10.25145
 Alpha  occ. eigenvalues --  -10.24746 -10.24066 -10.23675 -10.23623  -1.07774
 Alpha  occ. eigenvalues --   -1.03209  -1.02939  -1.02755  -1.02148  -1.01676
 Alpha  occ. eigenvalues --   -1.00599  -0.99888  -0.78453  -0.76304  -0.69107
 Alpha  occ. eigenvalues --   -0.65926  -0.63499  -0.57083  -0.55324  -0.54618
 Alpha  occ. eigenvalues --   -0.54026  -0.53193  -0.51473  -0.50544  -0.49949
 Alpha  occ. eigenvalues --   -0.48215  -0.46654  -0.44330  -0.43955  -0.43252
 Alpha  occ. eigenvalues --   -0.42167  -0.41121  -0.40775  -0.38550  -0.37104
 Alpha  occ. eigenvalues --   -0.36345  -0.35935  -0.35010  -0.33992  -0.33318
 Alpha  occ. eigenvalues --   -0.32068  -0.31396  -0.30372  -0.29604  -0.28657
 Alpha  occ. eigenvalues --   -0.26816  -0.26408  -0.25897
 Alpha virt. eigenvalues --    0.04351   0.05387   0.06804   0.08170   0.09525
 Alpha virt. eigenvalues --    0.10498   0.11710   0.12253   0.14491   0.15106
 Alpha virt. eigenvalues --    0.15287   0.15773   0.16637   0.19249   0.19435

 Mulliken charges:
               1
     1  O   -0.545934
     2  C    0.096326
     3  C    0.094210
     4  C    0.109585
     5  C    0.294554
     6  C    0.075951
     7  H    0.149719
     8  H    0.130129
     9  H    0.140772
    10  H    0.163880
    11  C   -0.060942
    12  H    0.132082
    13  H    0.185035
    14  O   -0.611558
    15  H    0.392580
    16  O   -0.630815
    17  H    0.398473
    18  O   -0.628303
    19  H    0.398187
    20  O   -0.701297
    21  H    0.441862
    22  H    0.158437
    23  O   -0.653372
    24  H    0.440291
    25  O   -0.811252
    26  H    0.400272
    27  H    0.442164
    28  O   -0.825717
    29  H    0.401191
    30  H    0.423489
 Sum of Mulliken charges =  -0.00000

 Dipole moment (field-independent basis, Debye):
    X=              4.1235    Y=             -1.7364    Z=              0.0834  Tot=              4.4750
 Quadrupole moment (field-independent basis, Debye-Ang):
   XX=            -83.2523   YY=            -90.1233   ZZ=            -75.3628
   XY=             -0.9837   XZ=             -3.4898   YZ=              1.6103

  Exact polarizability:  98.054  -1.803  96.635   0.787  -1.046  86.238
 Approx polarizability: 129.817  -0.313 132.299   3.141  -0.750 123.668

                      1                      2                      3
                      A                      A                      A
 Frequencies --     46.8496                56.8819                63.6748
 Red. masses --      5.2421                 6.1816                 5.9968
 Frc consts  --      0.0068                 0.0118                 0.0143
 IR Inten    --      1.5735                 0.3994                 0.8236

                      4                      5                      6
                      A                      A                      A
 Frequencies --     73.8033                80.6728               140.0602
 Red. masses --      6.4106                 4.3390                 5.4901
 Frc consts  --      0.0206                 0.0166                 0.0635
 IR Inten    --      1.0659                 9.6565                 4.0734

                      7                      8                      9
                      A                      A                      A
 Frequencies --    163.5858               193.1922               206.7139
 Red. masses --      6.0589                 5.1275                 2.9859
 Frc consts  --      0.0955                 0.1128                 0.0752
 IR Inten    --      0.6366                22.0622                 0.0576

                     10                     11                     12
                      A                      A                      A
 Frequencies --    235.0180               252.1705               261.0837
 Red. masses --      2.8429                 4.3102                 1.3925
 Frc consts  --      0.0925                 0.1615                 0.0559
 IR Inten    --     26.0906                34.6017                64.2722

                     13                     14                     15
                      A                      A                      A
 Frequencies --    267.2755               287.3154               301.5968
 Red. masses --      5.0040                 4.5679                 1.7641
 Frc consts  --      0.2106                 0.2222                 0.0945
 IR Inten    --     13.3957                36.1768                 4.1430

                     16                     17                     18
                      A                      A                      A
 Frequencies --    308.2567               322.6062               332.9595
 Red. masses --      2.8958                 1.3751                 1.3216
 Frc consts  --      0.1621                 0.0843                 0.0863
 IR Inten    --     35.3020               106.9173               191.3147

                     19                     20                     21
                      A                      A                      A
 Frequencies --    348.2687               363.2371               382.5914
 Red. masses --      1.4820                 1.7104                 3.5100
 Frc consts  --      0.1059                 0.1330                 0.3027
 IR Inten    --     55.6058                16.1027                29.9334

                     22                     23                     24
                      A                      A                      A
 Frequencies --    411.0970               462.6318               475.8181
 Red. masses --      3.3378                 3.3882                 1.6850
 Frc consts  --      0.3324                 0.4273                 0.2248
 IR Inten    --      4.0529                51.3641                23.4069

                     25                     26                     27
                      A                      A                      A
 Frequencies --    491.8214               498.2363               523.2612
 Red. masses --      1.4933                 1.6231                 4.6599
 Frc consts  --      0.2128                 0.2374                 0.7517
 IR Inten    --     35.6950               102.8487                18.0965

                     28                     29                     30
                      A                      A                      A
 Frequencies --    581.6519               604.8687               681.0107
 Red. masses --      4.6551                 5.6302                 2.9132
 Frc consts  --      0.9279                 1.2137                 0.7960
 IR Inten    --     16.8819                 8.9403                13.1529

                     31                     32                     33
                      A                      A                      A
 Frequencies --    721.8431               775.5249               816.4450
 Red. masses --      1.2824                 1.1398                 2.6420
 Frc consts  --      0.3937                 0.4039                 1.0376
 IR Inten    --     78.1172               103.6840                 7.6303

                     34                     35                     36
                      A                      A                      A
 Frequencies --    836.4426               863.2956               893.0652
 Red. masses --      3.2811                 1.1550                 2.7302
 Frc consts  --      1.3525                 0.5072                 1.2830
 IR Inten    --     15.0044               267.7580                61.6301

                     37                     38                     39
                      A                      A                      A
 Frequencies --    950.7684              1001.4212              1024.8400
 Red. masses --      3.3185                 2.1870                 2.7574
 Frc consts  --      1.7674                 1.2922                 1.7063
 IR Inten    --     47.5571                64.8721                48.6959

                     40                     41                     42
                      A                      A                      A
 Frequencies --   1043.2101              1062.1215              1078.1620
 Red. masses --      1.4775                 2.3570                 3.7045
 Frc consts  --      0.9474                 1.5666                 2.5371
 IR Inten    --     29.4914               115.2854                37.3825

                     43                     44                     45
                      A                      A                      A
 Frequencies --   1088.9234              1098.1444              1111.0703
 Red. masses --      3.5208                 3.4486                 3.2286
 Frc consts  --      2.4597                 2.4503                 2.3483
 IR Inten    --    106.3535                45.1961                23.8414

                     46                     47                     48
                      A                      A                      A
 Frequencies --   1116.6243              1123.8174              1162.1242
 Red. masses --      4.0788                 2.4704                 2.9318
 Frc consts  --      2.9964                 1.8383                 2.3329
 IR Inten    --    102.2916               113.8012               105.0766

                     49                     50                     51
                      A                      A                      A
 Frequencies --   1208.4803              1231.8540              1268.3099
 Red. masses --      1.3090                 1.1250                 1.4585
 Frc consts  --      1.1263                 1.0059                 1.3824
 IR Inten    --     30.7809                42.5551                 6.0621

                     52                     53                     54
                      A                      A                      A
 Frequencies --   1307.4312              1325.6958              1349.8456
 Red. masses --      1.4348                 1.1090                 1.2919
 Frc consts  --      1.4450                 1.1484                 1.3869
 IR Inten    --     44.7856                12.9825                13.1838

                     55                     56                     57
                      A                      A                      A
 Frequencies --   1355.2085              1363.0946              1376.4935
 Red. masses --      1.1931                 1.2795                 1.2929
 Frc consts  --      1.2911                 1.4007                 1.4434
 IR Inten    --      3.7324                12.4252                 7.1746

                     58                     59                     60
                      A                      A                      A
 Frequencies --   1389.0656              1414.1627              1423.3167
 Red. masses --      1.2640                 1.3997                 1.3554
 Frc consts  --      1.4370                 1.6493                 1.6177
 IR Inten    --     15.8392                11.7376                20.2407

                     61                     62                     63
                      A                      A                      A
 Frequencies --   1441.2506              1449.3375              1463.6098
 Red. masses --      1.2535                 1.4398                 1.2832
 Frc consts  --      1.5341                 1.7819                 1.6196
 IR Inten    --     27.2122                23.0291                24.9305

                     64                     65                     66
                      A                      A                      A
 Frequencies --   1508.0124              1530.7944              1534.8680
 Red. masses --      1.2742                 1.0875                 1.1930
 Frc consts  --      1.7073                 1.5014                 1.6559
 IR Inten    --     20.3840                 6.1477               145.7709

                     67                     68                     69
                      A                      A                      A
 Frequencies --   1712.2119              1740.0464              3026.0894
 Red. masses --      1.0846                 1.0690                 1.0727
 Frc consts  --      1.8734                 1.9070                 5.7874
 IR Inten    --    115.8773                31.4063                48.6139

                     70                     71                     72
                      A                      A                      A
 Frequencies --   3035.6589              3041.0820              3046.3109
 Red. masses --      1.0838                 1.0846                 1.0859
 Frc consts  --      5.8844                 5.9101                 5.9372
 IR Inten    --     37.4180                37.4357                20.9978

                     73                     74                     75
                      A                      A                      A
 Frequencies --   3091.8975              3125.6734              3156.6267
 Red. masses --      1.0860                 1.0890                 1.0947
 Frc consts  --      6.1167                 6.2687                 6.4269
 IR Inten    --     16.8539                47.2994                 7.9137

                     76                     77                     78
                      A                      A                      A
 Frequencies --   3274.5522              3386.2950              3412.7407
 Red. masses --      1.0689                 1.0633                 1.0655
 Frc consts  --      6.7531                 7.1836                 7.3119
 IR Inten    --    584.9425               901.8559               211.3632

                     79                     80                     81
                      A                      A                      A
 Frequencies --   3560.2653              3674.4200              3735.6604
 Red. masses --      1.0568                 1.0650                 1.0662
 Frc consts  --      7.8923                 8.4720                 8.7668
 IR Inten    --    480.2923                39.5318                14.0520

                     82                     83                     84
                      A                      A                      A
 Frequencies --   3736.0698              3796.4767              3804.1591
 Red. masses --      1.0661                 1.0674                 1.0702
 Frc consts  --      8.7674                 9.0643                 9.1254
 IR Inten    --     14.9117                48.1892                78.3834

 - Thermochemistry -
 -------------------
 Temperature   298.150 Kelvin.  Pressure   1.00000 Atm.
 Atom     1 has atomic number  8 and mass  15.99491

 Molecular mass:   216.08452 amu.
 Principal axes and moments of inertia in atomic units:
                           1         2         3
     Eigenvalues --  2569.706023221.375834271.62225
           X            0.99997   0.00802   0.00003
           Y           -0.00802   0.99994   0.00713
           Z            0.00003  -0.00713   0.99997
 This molecule is an asymmetric top.
 Rotational symmetry number  1.
 Warning -- assumption of classical behavior for rotation
           may cause significant error
 Rotational temperatures (Kelvin)      0.03371     0.02689     0.02028
 Rotational constants (GHZ):           0.70231     0.56024     0.42250
 Zero-point vibrational energy     654854.5 (Joules/Mol)
                                  156.51398 (Kcal/Mol)
 Warning -- explicit consideration of  29 degrees of freedom as
           vibrations may cause significant error
 Vibrational temperatures:     67.41    81.84    91.61   106.19   116.07
          (Kelvin)            201.52   235.36   277.96   297.41   338.14
                              362.82   375.64   384.55   413.38   433.93
                              443.51   464.16   479.05   501.08   522.62
                              550.46   591.48   665.62   684.60   707.62
                              716.85   752.86   836.87   870.27   979.82
                             1038.57  1115.81  1174.68  1203.45  1242.09
                             1284.92  1367.94  1440.82  1474.51  1500.94
                             1528.15  1551.23  1566.72  1579.98  1598.58
                             1606.57  1616.92  1672.04  1738.73  1772.36
                             1824.81  1881.10  1907.38  1942.12  1949.84
                             1961.19  1980.46  1998.55  2034.66  2047.83
                             2073.64  2085.27  2105.81  2169.69  2202.47
                             2208.33  2463.49  2503.54  4353.86  4367.63
                             4375.43  4382.96  4448.55  4497.14  4541.68
                             4711.34  4872.12  4910.17  5122.42  5286.66
                             5374.78  5375.36  5462.28  5473.33

 Zero-point correction=                           0.249421 (Hartree/Particle)
 Thermal correction to Energy=                    0.266537
 Thermal correction to Enthalpy=                  0.267481
 Thermal correction to Gibbs Free Energy=         0.205580
 Sum of electronic and zero-point Energies=           -839.752332
 Sum of electronic and thermal Energies=              -839.735217
 Sum of electronic and thermal Enthalpies=            -839.734272
 Sum of electronic and thermal Free Energies=         -839.796173

                     E (Thermal)             CV                S
                      KCal/Mol        Cal/Mol-Kelvin    Cal/Mol-Kelvin
 Total                  167.254             63.605            130.280
 Electronic               0.000              0.000              0.000
 Translational            0.889              2.981             42.015
 Rotational               0.889              2.981             31.936
 Vibrational            165.477             57.643             56.329
 Vibration     1          0.595              1.979              4.946
 Vibration     2          0.596              1.975              4.563
 Vibration     3          0.597              1.972              4.340
 Vibration     4          0.599              1.966              4.049
 Vibration     5          0.600              1.962              3.874
 Vibration     6          0.615              1.913              2.803
 Vibration     7          0.623              1.887              2.508
 Vibration     8          0.635              1.849              2.197
 Vibration     9          0.641              1.830              2.073
 Vibration    10          0.655              1.787              1.840
 Vibration    11          0.664              1.759              1.715
 Vibration    12          0.669              1.744              1.655
 Vibration    13          0.672              1.733              1.614
 Vibration    14          0.684              1.697              1.490
 Vibration    15          0.694              1.671              1.408
 Vibration    16          0.698              1.658              1.372
 Vibration    17          0.708              1.630              1.297
 Vibration    18          0.715              1.610              1.246
 Vibration    19          0.726              1.579              1.174
 Vibration    20          0.737              1.548              1.108
 Vibration    21          0.752              1.507              1.029
 Vibration    22          0.775              1.446              0.923
 Vibration    23          0.820              1.333              0.758
 Vibration    24          0.832              1.304              0.721
 Vibration    25          0.848              1.268              0.679
 Vibration    26          0.854              1.254              0.663
 Vibration    27          0.878              1.198              0.602
 Vibration    28          0.938              1.071              0.482
 Vibration    29          0.963              1.021              0.441

 Normal termination of Gaussian 09 at Sun Jan 15 14:12:02 2017.
