 Gaussian 09, Revision D.01,
 Gaussian 09:  AM64L-G09RevD.01 24-Apr-2013

 ----------------------------------------------------------------------
 # opt=(TS, CalcFC, NoEigenTest, MaxCycle=1000, cartesian) Freq G3MP2B3
 ----------------------------------------------------------------------

 -----------------------
 glo_1w_ALPHA_G3MP2B3_00
 -----------------------
 Symbolic Z-matrix:
 Charge =  0 Multiplicity = 1

 SCF Done:  E(RB3LYP) =  -839.930105935     A.U. after   14 cycles
 SCF Done:  E(RB3LYP) =  -839.940246148     A.U. after   11 cycles
 SCF Done:  E(RB3LYP) =  -839.947024447     A.U. after   11 cycles
 SCF Done:  E(RB3LYP) =  -839.951332939     A.U. after   11 cycles
 SCF Done:  E(RB3LYP) =  -839.954307278     A.U. after   11 cycles
 SCF Done:  E(RB3LYP) =  -839.956145909     A.U. after   11 cycles
 SCF Done:  E(RB3LYP) =  -839.957078778     A.U. after   12 cycles
 SCF Done:  E(RB3LYP) =  -839.957789906     A.U. after   11 cycles
 SCF Done:  E(RB3LYP) =  -839.958046395     A.U. after   11 cycles
 SCF Done:  E(RB3LYP) =  -839.958305339     A.U. after   11 cycles
 SCF Done:  E(RB3LYP) =  -839.959674106     A.U. after    7 cycles
 SCF Done:  E(RB3LYP) =  -839.959643617     A.U. after   11 cycles
 SCF Done:  E(RB3LYP) =  -839.959665397     A.U. after   11 cycles
 SCF Done:  E(RB3LYP) =  -839.959675009     A.U. after   10 cycles
 SCF Done:  E(RB3LYP) =  -839.959674593     A.U. after    9 cycles
 SCF Done:  E(RB3LYP) =  -839.959673206     A.U. after    8 cycles
 SCF Done:  E(RB3LYP) =  -839.959674170     A.U. after    8 cycles
 Optimization completed.
    -- Stationary point found.
 Normal termination of Gaussian 09 at Fri Jun 10 22:22:53 2016.

 ------------------------------------------------------------
 #N Geom=AllCheck Guess=TCheck SCRF=Check B3LYP/6-31G(d) Freq
 ------------------------------------------------------------

 Structure from the checkpoint file:  "/home/iawad/scratch/MAIN/PRO_Halides/direct/TsF/glo_1w_ALPHA/glo_1w_ALPHA_TsF_G3MP2B3_00.chk"
 -----------------------
 glo_1w_ALPHA_G3MP2B3_00
 -----------------------
 Charge =  0 Multiplicity = 1

 SCF Done:  E(RB3LYP) =  -839.959674170     A.U. after    1 cycles

  Exact polarizability: 114.523  -0.009 103.904  -1.120   0.074  78.493
 Approx polarizability: 143.999  -0.139 138.334  -2.032  -2.455 130.455

 ******    1 imaginary frequencies (negative Signs) ******

                      1                      2                      3
                      A                      A                      A
 Frequencies --  -1470.6372                38.4776                66.3414
 Red. masses --      1.1147                 5.8587                 6.3459
 Frc consts  --      1.4204                 0.0051                 0.0165
 IR Inten    --    222.2763                 2.2358                 3.7993

                      4                      5                      6
                      A                      A                      A
 Frequencies --     90.5909               105.0081               136.5419
 Red. masses --      5.3366                 6.2383                 6.1789
 Frc consts  --      0.0258                 0.0405                 0.0679
 IR Inten    --      1.5410                 1.5822                 1.9792

                      7                      8                      9
                      A                      A                      A
 Frequencies --    137.7797               162.1691               179.5805
 Red. masses --      5.2791                 2.8030                 4.6623
 Frc consts  --      0.0590                 0.0434                 0.0886
 IR Inten    --      2.5568                12.1160                11.6920

                     10                     11                     12
                      A                      A                      A
 Frequencies --    190.6449               219.9978               242.9186
 Red. masses --      4.3359                 5.0194                 1.2799
 Frc consts  --      0.0929                 0.1431                 0.0445
 IR Inten    --     25.8989                 1.5169               200.8816

                     13                     14                     15
                      A                      A                      A
 Frequencies --    268.9685               291.8675               316.3424
 Red. masses --      6.2202                 3.9924                 2.1988
 Frc consts  --      0.2651                 0.2004                 0.1296
 IR Inten    --     18.7711                21.7723                76.9265

                     16                     17                     18
                      A                      A                      A
 Frequencies --    323.6658               357.4981               378.9347
 Red. masses --      3.4636                 3.5520                 3.4839
 Frc consts  --      0.2138                 0.2675                 0.2947
 IR Inten    --     43.6158                83.3281                60.0715

                     19                     20                     21
                      A                      A                      A
 Frequencies --    407.9417               444.6487               447.2907
 Red. masses --      2.8957                 2.5280                 1.7682
 Frc consts  --      0.2839                 0.2945                 0.2084
 IR Inten    --     95.0599                23.7698                10.2882

                     22                     23                     24
                      A                      A                      A
 Frequencies --    472.5830               488.7678               508.8231
 Red. masses --      1.3169                 3.3934                 3.0111
 Frc consts  --      0.1733                 0.4776                 0.4593
 IR Inten    --    100.3530               110.7940                56.0646

                     25                     26                     27
                      A                      A                      A
 Frequencies --    515.0700               547.3913               577.1214
 Red. masses --      3.6394                 1.5592                 2.3770
 Frc consts  --      0.5689                 0.2753                 0.4665
 IR Inten    --     41.3047                43.7071                17.8496

                     28                     29                     30
                      A                      A                      A
 Frequencies --    594.5784               606.1097               641.1609
 Red. masses --      1.2985                 2.4342                 1.1828
 Frc consts  --      0.2705                 0.5269                 0.2865
 IR Inten    --     60.2602               142.1566               102.3323

                     31                     32                     33
                      A                      A                      A
 Frequencies --    662.6045               687.8881               720.5085
 Red. masses --      1.5010                 6.1643                 2.2736
 Frc consts  --      0.3883                 1.7186                 0.6954
 IR Inten    --     48.3101                40.6161               188.4732

                     34                     35                     36
                      A                      A                      A
 Frequencies --    774.0631               864.9206               909.3836
 Red. masses --      4.2916                 1.0775                 1.7038
 Frc consts  --      1.5150                 0.4749                 0.8301
 IR Inten    --     38.0622               111.4368                48.9949

                     37                     38                     39
                      A                      A                      A
 Frequencies --    954.5987              1006.2761              1017.4298
 Red. masses --      3.1880                 4.3398                 3.8653
 Frc consts  --      1.7116                 2.5891                 2.3574
 IR Inten    --     35.1637               109.8991               163.2594

                     40                     41                     42
                      A                      A                      A
 Frequencies --   1043.0422              1088.7608              1095.1362
 Red. masses --      4.3263                 2.4503                 4.4487
 Frc consts  --      2.7731                 1.7113                 3.1435
 IR Inten    --     35.2457                47.3001               108.0460

                     43                     44                     45
                      A                      A                      A
 Frequencies --   1111.3845              1116.7718              1130.9299
 Red. masses --      3.7224                 2.3670                 4.0623
 Frc consts  --      2.7090                 1.7393                 3.0612
 IR Inten    --    277.6732               146.1306                 4.5337

                     46                     47                     48
                      A                      A                      A
 Frequencies --   1138.5954              1210.0233              1213.6830
 Red. masses --      2.6333                 1.2931                 1.2082
 Frc consts  --      2.0114                 1.1155                 1.0486
 IR Inten    --     17.0977               255.5429               134.8245

                     49                     50                     51
                      A                      A                      A
 Frequencies --   1236.3716              1274.0783              1282.0726
 Red. masses --      1.3154                 1.2398                 1.1805
 Frc consts  --      1.1847                 1.1857                 1.1433
 IR Inten    --    141.4359               428.1777              1599.3572

                     52                     53                     54
                      A                      A                      A
 Frequencies --   1298.3272              1303.0417              1350.8039
 Red. masses --      1.2356                 1.1586                 1.2469
 Frc consts  --      1.2271                 1.1591                 1.3405
 IR Inten    --    189.7139                58.5252               144.2584

                     55                     56                     57
                      A                      A                      A
 Frequencies --   1371.8090              1402.7359              1405.9562
 Red. masses --      1.4336                 1.2820                 1.2888
 Frc consts  --      1.5895                 1.4863                 1.5009
 IR Inten    --    296.7241                45.1761                 7.3254

                     58                     59                     60
                      A                      A                      A
 Frequencies --   1413.5310              1435.4077              1443.7509
 Red. masses --      1.3453                 1.2080                 1.1677
 Frc consts  --      1.5837                 1.4664                 1.4341
 IR Inten    --     22.8750                40.7274                98.1303

                     61                     62                     63
                      A                      A                      A
 Frequencies --   1449.9290              1469.3275              1474.7790
 Red. masses --      1.3021                 1.3004                 1.5505
 Frc consts  --      1.6128                 1.6541                 1.9869
 IR Inten    --    329.3992                92.4065               174.6709

                     64                     65                     66
                      A                      A                      A
 Frequencies --   1493.8234              1533.9350              1577.7749
 Red. masses --      1.2600                 1.0942                 1.1011
 Frc consts  --      1.6566                 1.5169                 1.6149
 IR Inten    --    143.0758                16.6345               151.7840

                     67                     68                     69
                      A                      A                      A
 Frequencies --   1600.6030              1691.3114              1719.7828
 Red. masses --      2.3062                 1.0914                 1.0757
 Frc consts  --      3.4812                 1.8394                 1.8745
 IR Inten    --    235.1481               176.3677                64.0259

                     70                     71                     72
                      A                      A                      A
 Frequencies --   1881.8159              2989.8026              2999.1371
 Red. masses --      1.0259                 1.0820                 1.0728
 Frc consts  --      2.1405                 5.6983                 5.6852
 IR Inten    --     36.6663                19.0207                27.6230

                     73                     74                     75
                      A                      A                      A
 Frequencies --   3011.3098              3013.7606              3019.3965
 Red. masses --      1.0870                 1.0820                 1.0847
 Frc consts  --      5.8076                 5.7903                 5.8267
 IR Inten    --     79.4653                 5.7313                93.8441

                     76                     77                     78
                      A                      A                      A
 Frequencies --   3096.5078              3108.5580              3469.6150
 Red. masses --      1.0865                 1.0948                 1.0678
 Frc consts  --      6.1382                 6.2330                 7.5738
 IR Inten    --     23.1303                33.3302               468.7457

                     79                     80                     81
                      A                      A                      A
 Frequencies --   3598.3015              3681.9968              3693.0396
 Red. masses --      1.0554                 1.0647                 1.0657
 Frc consts  --      8.0510                 8.5046                 8.5632
 IR Inten    --    435.4975                52.9555                28.6275

                     82                     83                     84
                      A                      A                      A
 Frequencies --   3710.2999              3770.9363              3798.1929
 Red. masses --      1.0655                 1.0654                 1.0727
 Frc consts  --      8.6418                 8.9261                 9.1177
 IR Inten    --     59.2982                43.9276                90.2297

 - Thermochemistry -
 -------------------
 Temperature   298.150 Kelvin.  Pressure   1.00000 Atm.
 Atom     1 has atomic number  6 and mass  12.00000

 Molecular mass:   216.08452 amu.
 Principal axes and moments of inertia in atomic units:
                           1         2         3
     Eigenvalues --  2666.556293284.518975393.50500
           X            0.99996   0.00796   0.00278
           Y           -0.00796   0.99997  -0.00035
           Z           -0.00279   0.00032   1.00000
 This molecule is an asymmetric top.
 Rotational symmetry number  1.
 Warning -- assumption of classical behavior for rotation
           may cause significant error
 Rotational temperatures (Kelvin)      0.03248     0.02637     0.01606
 Rotational constants (GHZ):           0.67681     0.54947     0.33461
    1 imaginary frequencies ignored.
 Zero-point vibrational energy     637469.8 (Joules/Mol)
                                  152.35895 (Kcal/Mol)
 Warning -- explicit consideration of  28 degrees of freedom as
           vibrations may cause significant error
 Vibrational temperatures:     55.36    95.45   130.34   151.08   196.45
          (Kelvin)            198.23   233.32   258.38   274.30   316.53
                              349.51   386.99   419.93   455.15   465.68
                              514.36   545.20   586.94   639.75   643.55
                              679.94   703.23   732.08   741.07   787.57
                              830.35   855.46   872.06   922.49   953.34
                              989.72  1036.65  1113.70  1244.43  1308.40
                             1373.45  1447.81  1463.85  1500.70  1566.48
                             1575.65  1599.03  1606.78  1627.15  1638.18
                             1740.95  1746.22  1778.86  1833.11  1844.61
                             1868.00  1874.78  1943.50  1973.72  2018.22
                             2022.85  2033.75  2065.23  2077.23  2086.12
                             2114.03  2121.88  2149.28  2206.99  2270.06
                             2302.91  2433.42  2474.38  2707.51  4301.65
                             4315.08  4332.60  4336.12  4344.23  4455.18
                             4472.52  4992.00  5177.15  5297.57  5313.45
                             5338.29  5425.53  5464.75

 Zero-point correction=                           0.242799 (Hartree/Particle)
 Thermal correction to Energy=                    0.258875
 Thermal correction to Enthalpy=                  0.259819
 Thermal correction to Gibbs Free Energy=         0.200234
 Sum of electronic and zero-point Energies=           -839.716875
 Sum of electronic and thermal Energies=              -839.700799
 Sum of electronic and thermal Enthalpies=            -839.699855
 Sum of electronic and thermal Free Energies=         -839.759440

                     E (Thermal)             CV                S
                      KCal/Mol        Cal/Mol-Kelvin    Cal/Mol-Kelvin
 Total                  162.447             60.972            125.407
 Electronic               0.000              0.000              0.000
 Translational            0.889              2.981             42.015
 Rotational               0.889              2.981             32.224
 Vibrational            160.669             55.010             51.168
 Vibration     1          0.594              1.982              5.336
 Vibration     2          0.598              1.970              4.259
 Vibration     3          0.602              1.956              3.647
 Vibration     4          0.605              1.945              3.359
 Vibration     5          0.614              1.917              2.852
 Vibration     6          0.614              1.916              2.834
 Vibration     7          0.622              1.889              2.524
 Vibration     8          0.629              1.867              2.333
 Vibration     9          0.634              1.853              2.222
 Vibration    10          0.647              1.811              1.959
 Vibration    11          0.659              1.774              1.781
 Vibration    12          0.673              1.730              1.603
 Vibration    13          0.687              1.689              1.463
 Vibration    14          0.703              1.642              1.329
 Vibration    15          0.708              1.628              1.292
 Vibration    16          0.733              1.560              1.133
 Vibration    17          0.749              1.515              1.043
 Vibration    18          0.773              1.453              0.934
 Vibration    19          0.804              1.373              0.812
 Vibration    20          0.806              1.367              0.804
 Vibration    21          0.829              1.311              0.730
 Vibration    22          0.845              1.275              0.687
 Vibration    23          0.864              1.230              0.636
 Vibration    24          0.870              1.217              0.622
 Vibration    25          0.903              1.145              0.550
 Vibration    26          0.934              1.081              0.491
 Vibration    27          0.952              1.043              0.459
 Vibration    28          0.965              1.019              0.439

 Normal termination of Gaussian 09 at Fri Jun 10 22:40:18 2016.

 --------------------------------------------------------------
 #N Geom=AllCheck Guess=TCheck SCRF=Check QCISD(T,FrzG3)/GTBas1
 --------------------------------------------------------------

 Structure from the checkpoint file:  "/home/iawad/scratch/MAIN/PRO_Halides/direct/TsF/glo_1w_ALPHA/glo_1w_ALPHA_TsF_G3MP2B3_00.chk"
 -----------------------
 glo_1w_ALPHA_G3MP2B3_00
 -----------------------
 Charge =  0 Multiplicity = 1

 SCF Done:  E(RHF) =  -835.280182940     A.U. after   13 cycles
 E2 =    -0.2276227877D+01 EUMP2 =    -0.83755641081699D+03
 Normal termination of Gaussian 09 at Mon Jun 13 01:30:26 2016.

 -------------------------------------------------------------
 #N Geom=AllCheck Guess=TCheck SCRF=Check MP2=FrzG3/GTMP2Large
 -------------------------------------------------------------

 Structure from the checkpoint file:  "/home/iawad/scratch/MAIN/PRO_Halides/direct/TsF/glo_1w_ALPHA/glo_1w_ALPHA_TsF_G3MP2B3_00.chk"
 -----------------------
 glo_1w_ALPHA_G3MP2B3_00
 -----------------------
 Charge =  0 Multiplicity = 1

                         Standard orientation:
 ---------------------------------------------------------------------
 Center     Atomic      Atomic             Coordinates (Angstroms)
 Number     Number       Type             X           Y           Z
 ---------------------------------------------------------------------
      1          6           0       -1.438214   -1.528487   -0.137098
      2          8           0       -1.637697    0.131315   -0.763760
      3          1           0       -4.325703   -0.320969    0.408689
      4          8           0       -3.495805    0.050413    0.749246
      5          1           0       -2.689745    0.238689   -0.160285
      6          6           0       -0.017502   -1.816035   -0.595364
      7          6           0        0.991114   -0.847144    0.032928
      8          6           0        0.711611    0.602625   -0.390385
      9          6           0       -0.736081    1.045563   -0.120110
     10          1           0        0.014715   -1.681397   -1.689046
     11          1           0        0.940035    0.704273   -1.456458
     12          1           0       -0.910635    1.029721    0.967477
     13          1           0        0.901902   -0.927427    1.127848
     14          8           0        0.296982   -3.148080   -0.244931
     15          8           0        2.256902   -1.303253   -0.414757
     16          8           0        1.624236    1.524179    0.265611
     17          1           0        2.968775   -0.881122    0.119167
     18          1           0        1.268127   -3.191866   -0.315990
     19          1           0        1.386285    1.539973    1.210191
     20          6           0       -1.049463    2.459559   -0.638921
     21          8           0       -0.367110    3.473380    0.076684
     22          1           0       -2.118942    2.648629   -0.503468
     23          1           0       -0.838085    2.498975   -1.719867
     24          1           0        0.581708    3.289640   -0.027668
     25          1           0       -2.203834   -1.929353   -0.820587
     26          8           0       -1.705071   -1.486969    1.120927
     27          1           0       -2.801245   -0.810151    1.133514
     28          8           0        4.124888    0.365678    0.745614
     29          1           0        4.829902    0.427350    0.082601
     30          1           0        3.449341    1.015240    0.460509
 ---------------------------------------------------------------------

 SCF Done:  E(RHF) =  -835.625627967     A.U. after   14 cycles
 E2 =    -0.2986715782D+01 EUMP2 =    -0.83861234374950D+03

 The electronic state is 1-A.
 Alpha  occ. eigenvalues --  -20.60936 -20.58838 -20.58309 -20.58205 -20.56540
 Alpha  occ. eigenvalues --  -20.56500 -20.56329 -20.53841 -11.36868 -11.31299
 Alpha  occ. eigenvalues --  -11.30474 -11.29986 -11.29923 -11.28784  -1.42449
 Alpha  occ. eigenvalues --   -1.41001  -1.38797  -1.36842  -1.36560  -1.35565
 Alpha  occ. eigenvalues --   -1.34824  -1.34456  -1.07174  -1.03172  -0.94732
 Alpha  occ. eigenvalues --   -0.88719  -0.84787  -0.79842  -0.77411  -0.75011
 Alpha  occ. eigenvalues --   -0.73882  -0.73056  -0.71156  -0.69577  -0.68918
 Alpha  occ. eigenvalues --   -0.67350  -0.66318  -0.63590  -0.62700  -0.62504
 Alpha  occ. eigenvalues --   -0.60823  -0.60512  -0.60109  -0.58432  -0.56947
 Alpha  occ. eigenvalues --   -0.56406  -0.55097  -0.54368  -0.53204  -0.52433
 Alpha  occ. eigenvalues --   -0.51286  -0.50450  -0.47479  -0.46468  -0.45100
 Alpha  occ. eigenvalues --   -0.44850  -0.43335  -0.42373
 Alpha virt. eigenvalues --    0.03566   0.03885   0.04891   0.05496   0.06189
 Alpha virt. eigenvalues --    0.06745   0.07511   0.08016   0.08060   0.09112
 Alpha virt. eigenvalues --    0.09955   0.10245   0.11061   0.11384   0.12300

 Mulliken charges:
               1
     1  C    0.138034
     2  O   -0.325008
     3  H    0.301459
     4  O   -0.706455
     5  H    0.432967
     6  C   -0.090852
     7  C    0.330323
     8  C   -0.197937
     9  C   -0.092309
    10  H    0.131696
    11  H    0.149620
    12  H    0.138733
    13  H    0.142600
    14  O   -0.418770
    15  O   -0.576970
    16  O   -0.497460
    17  H    0.448119
    18  H    0.301273
    19  H    0.283995
    20  C   -0.078373
    21  O   -0.379365
    22  H    0.087667
    23  H    0.111084
    24  H    0.288185
    25  H    0.140720
    26  O   -0.549278
    27  H    0.475501
    28  O   -0.603938
    29  H    0.274339
    30  H    0.340403
 Sum of Mulliken charges =   0.00000

 Dipole moment (field-independent basis, Debye):
    X=              0.3144    Y=              1.0657    Z=             -2.5928  Tot=              2.8209
 Quadrupole moment (field-independent basis, Debye-Ang):
   XX=            -68.8600   YY=           -102.9760   ZZ=            -88.0181
   XY=              6.9275   XZ=              1.1793   YZ=              1.2805

    1 imaginary frequencies ignored.
 Normal termination of Gaussian 09 at Mon Jun 13 08:02:48 2016.
