 Gaussian 09, Revision E.01,
 Gaussian 09:  ES64L-G09RevE.01 30-Nov-2015

 ----------------------------------------------------------------------
 # opt=(calcfc,ts,noeigentest,maxcycle=1000,cartesian) b3lyp 6-31g(d) f
 req
 ----------------------------------------------------------------------

 -------------------------------------------
 ./3/glo_2w_alpha_boat3_b3lyp_631Gd_iopt.out
 -------------------------------------------
 Symbolic Z-matrix:
 Charge =  0 Multiplicity = 1

 SCF Done:  E(RB3LYP) =  -839.989188994     A.U. after   14 cycles
 Optimization completed.
    -- Stationary point found.
 Normal termination of Gaussian 09 at Tue Jan 31 06:47:57 2017.

 --------------------------------------------------------------------
 #N Geom=AllCheck Guess=TCheck SCRF=Check GenChk RB3LYP/6-31G(d) Freq
 --------------------------------------------------------------------

 Structure from the checkpoint file:  "/scratch/10501386.yak.local/Gau-23925.chk"
 -------------------------------------------
 ./3/glo_2w_alpha_boat3_b3lyp_631Gd_iopt.out
 -------------------------------------------
 Charge =  0 Multiplicity = 1

                         Standard orientation:
 ---------------------------------------------------------------------
 Center     Atomic      Atomic             Coordinates (Angstroms)
 Number     Number       Type             X           Y           Z
 ---------------------------------------------------------------------
      1          6           0        1.329229    0.678981    0.630410
      2          6           0        0.937601   -1.433729   -0.819130
      3          8           0       -0.727151    0.244499   -0.841140
      4          6           0       -0.527689   -1.149381   -0.508050
      5          6           0       -0.020392    1.172740    0.008830
      6          6           0        1.796330   -0.753348    0.244270
      7          1           0        1.720071   -1.365408    1.145580
      8          1           0        1.137871   -0.977939   -1.805130
      9          1           0       -0.665702    1.414049    0.864880
     10          1           0        2.109108    1.385542    0.330960
     11          6           0        0.153807    2.434970   -0.846200
     12          1           0       -0.836213    2.767829   -1.195330
     13          1           0        0.752227    2.196191   -1.732090
     14          8           0        0.850596    3.464371   -0.167240
     15          1           0        0.388696    3.645760    0.666970
     16          8           0        1.178712   -2.825069   -0.859420
     17          1           0        2.142812   -2.928018   -0.785200
     18          8           0        3.178810   -0.831267   -0.114370
     19          1           0        3.315040   -0.276037   -0.899860
     20          8           0        1.260019    0.816331    2.048100
     21          1           0        0.609519    0.154631    2.342800
     22          1           0       -1.195249   -1.689021   -1.189450
     23          8           0       -0.804719   -1.413251    0.823220
     24          1           0       -1.792269   -1.470902    0.932290
     25          8           0       -3.404881    0.863897   -0.646440
     26          1           0       -3.856961    0.783236   -1.499840
     27          1           0       -2.451491    0.698727   -0.841620
     28          8           0       -3.517219   -1.363594    0.911660
     29          1           0       -3.850319   -1.145424    1.794990
     30          1           0       -3.653800   -0.541954    0.374330
 ---------------------------------------------------------------------

 SCF Done:  E(RB3LYP) =  -839.989188994     A.U. after    1 cycles

 The electronic state is 1-A.
 Alpha  occ. eigenvalues --  -19.17784 -19.16412 -19.15922 -19.15668 -19.15401
 Alpha  occ. eigenvalues --  -19.14850 -19.14515 -19.14480 -10.29242 -10.24988
 Alpha  occ. eigenvalues --  -10.24284 -10.24234 -10.23896 -10.23873  -1.07843
 Alpha  occ. eigenvalues --   -1.03837  -1.03089  -1.02414  -1.02041  -1.01334
 Alpha  occ. eigenvalues --   -1.01111  -0.99895  -0.77683  -0.77288  -0.68967
 Alpha  occ. eigenvalues --   -0.65371  -0.63124  -0.58464  -0.55862  -0.54410
 Alpha  occ. eigenvalues --   -0.53932  -0.53065  -0.51291  -0.50492  -0.49368
 Alpha  occ. eigenvalues --   -0.47016  -0.46562  -0.46204  -0.44438  -0.42640
 Alpha  occ. eigenvalues --   -0.41677  -0.41162  -0.40531  -0.39176  -0.37858
 Alpha  occ. eigenvalues --   -0.35806  -0.35590  -0.34355  -0.33513  -0.33155
 Alpha  occ. eigenvalues --   -0.32190  -0.31134  -0.30454  -0.29260  -0.28662
 Alpha  occ. eigenvalues --   -0.27787  -0.27014  -0.25193
 Alpha virt. eigenvalues --    0.04133   0.05591   0.06331   0.07811   0.09335
 Alpha virt. eigenvalues --    0.09738   0.09956   0.11574   0.12260   0.13947
 Alpha virt. eigenvalues --    0.14110   0.15089   0.16846   0.18583   0.18764

 Mulliken charges:
               1
     1  C    0.101667
     2  C    0.141097
     3  O   -0.550305
     4  C    0.291466
     5  C    0.094164
     6  C    0.069593
     7  H    0.175507
     8  H    0.107041
     9  H    0.134870
    10  H    0.167149
    11  C   -0.054014
    12  H    0.136503
    13  H    0.149134
    14  O   -0.607668
    15  H    0.399560
    16  O   -0.633668
    17  H    0.403189
    18  O   -0.633435
    19  H    0.387582
    20  O   -0.637197
    21  H    0.396672
    22  H    0.147545
    23  O   -0.657394
    24  H    0.442246
    25  O   -0.824560
    26  H    0.401163
    27  H    0.443883
    28  O   -0.820404
    29  H    0.398799
    30  H    0.429815
 Sum of Mulliken charges =  -0.00000

 Dipole moment (field-independent basis, Debye):
    X=             -2.7576    Y=              1.3394    Z=             -1.6267  Tot=              3.4705
 Quadrupole moment (field-independent basis, Debye-Ang):
   XX=            -79.0455   YY=            -95.6034   ZZ=            -76.4633
   XY=             -5.8739   XZ=             -6.5745   YZ=             -0.5069

  Exact polarizability: 100.520  -1.016  95.428  -1.609  -0.864  86.548
 Approx polarizability: 130.052   2.085 124.795  -2.280  -2.613 128.779

 ******    1 imaginary frequencies (negative Signs) ******

                      1                      2                      3
                      A                      A                      A
 Frequencies --    -77.1057                33.1048                36.0330
 Red. masses --      4.6616                 5.6003                 5.7501
 Frc consts  --      0.0163                 0.0036                 0.0044
 IR Inten    --      4.2444                 0.8379                 0.6008

                      4                      5                      6
                      A                      A                      A
 Frequencies --     56.2623                84.5735               114.8915
 Red. masses --      5.6975                 6.6619                 3.5448
 Frc consts  --      0.0106                 0.0281                 0.0276
 IR Inten    --      5.3700                 1.7120                 0.9546

                      7                      8                      9
                      A                      A                      A
 Frequencies --    144.8511               169.2636               188.6620
 Red. masses --      5.6525                 4.5064                 4.6534
 Frc consts  --      0.0699                 0.0761                 0.0976
 IR Inten    --     17.8449                 7.0393                 1.2938

                     10                     11                     12
                      A                      A                      A
 Frequencies --    205.5886               245.8217               258.4240
 Red. masses --      4.7848                 3.8378                 1.2163
 Frc consts  --      0.1192                 0.1366                 0.0479
 IR Inten    --      0.4418                 1.7202                78.3154

                     13                     14                     15
                      A                      A                      A
 Frequencies --    272.8677               277.1142               288.3693
 Red. masses --      3.3915                 3.4161                 3.9482
 Frc consts  --      0.1488                 0.1546                 0.1934
 IR Inten    --     75.7006                21.6704                33.4545

                     16                     17                     18
                      A                      A                      A
 Frequencies --    314.8925               330.3155               339.3825
 Red. masses --      1.7706                 2.7122                 1.4450
 Frc consts  --      0.1034                 0.1744                 0.0981
 IR Inten    --    100.7661                 9.4913                61.0562

                     19                     20                     21
                      A                      A                      A
 Frequencies --    348.5306               371.7934               410.7283
 Red. masses --      2.0516                 1.7296                 1.1530
 Frc consts  --      0.1468                 0.1409                 0.1146
 IR Inten    --     24.9665               111.1997                53.5774

                     22                     23                     24
                      A                      A                      A
 Frequencies --    438.3660               451.9595               466.2307
 Red. masses --      1.4997                 2.8975                 2.4951
 Frc consts  --      0.1698                 0.3487                 0.3195
 IR Inten    --     82.8582                48.4070                69.4103

                     25                     26                     27
                      A                      A                      A
 Frequencies --    485.2762               493.2321               508.3453
 Red. masses --      2.5786                 1.3332                 2.6844
 Frc consts  --      0.3578                 0.1911                 0.4087
 IR Inten    --     16.0600                92.6089                19.0427

                     28                     29                     30
                      A                      A                      A
 Frequencies --    526.0545               547.2831               613.6807
 Red. masses --      1.4345                 3.6862                 4.8274
 Frc consts  --      0.2339                 0.6505                 1.0711
 IR Inten    --     64.4808                 4.7196                14.5217

                     31                     32                     33
                      A                      A                      A
 Frequencies --    657.3627               749.9556               784.9782
 Red. masses --      4.1924                 1.1338                 3.8939
 Frc consts  --      1.0674                 0.3757                 1.4137
 IR Inten    --     30.3729                89.6783                25.6829

                     34                     35                     36
                      A                      A                      A
 Frequencies --    822.5465               844.8385               941.3570
 Red. masses --      1.1714                 2.3080                 3.7265
 Frc consts  --      0.4669                 0.9706                 1.9456
 IR Inten    --    128.9835                 5.0315               105.5823

                     37                     38                     39
                      A                      A                      A
 Frequencies --    953.3503              1001.3157              1011.5830
 Red. masses --      2.9336                 1.1024                 2.7232
 Frc consts  --      1.5709                 0.6512                 1.6418
 IR Inten    --     25.0306               202.5779                64.0506

                     40                     41                     42
                      A                      A                      A
 Frequencies --   1033.3388              1044.7901              1057.8502
 Red. masses --      3.7409                 3.4331                 3.7169
 Frc consts  --      2.3535                 2.2080                 2.4507
 IR Inten    --     22.1404               152.1348               104.5719

                     43                     44                     45
                      A                      A                      A
 Frequencies --   1088.2953              1114.3181              1124.9035
 Red. masses --      3.5321                 4.0331                 2.5907
 Frc consts  --      2.4648                 2.9506                 1.9315
 IR Inten    --     77.0079                84.8739                39.0302

                     46                     47                     48
                      A                      A                      A
 Frequencies --   1139.2249              1147.3275              1171.2900
 Red. masses --      5.5852                 2.6838                 2.4412
 Frc consts  --      4.2708                 2.0815                 1.9732
 IR Inten    --     88.5664                32.1363                72.7195

                     49                     50                     51
                      A                      A                      A
 Frequencies --   1201.2054              1222.0388              1254.1657
 Red. masses --      1.3149                 1.3424                 1.2479
 Frc consts  --      1.1178                 1.1811                 1.1565
 IR Inten    --      0.1938                14.3996                50.8089

                     52                     53                     54
                      A                      A                      A
 Frequencies --   1291.9287              1323.8849              1334.0212
 Red. masses --      1.1449                 1.2126                 1.2769
 Frc consts  --      1.1259                 1.2522                 1.3388
 IR Inten    --     15.0373                23.2719                16.0697

                     55                     56                     57
                      A                      A                      A
 Frequencies --   1346.5124              1366.6534              1386.9667
 Red. masses --      1.2658                 1.2885                 1.2369
 Frc consts  --      1.3522                 1.4179                 1.4019
 IR Inten    --     13.6301                 0.0489                28.9283

                     58                     59                     60
                      A                      A                      A
 Frequencies --   1400.3125              1404.2308              1428.4850
 Red. masses --      1.3167                 1.3575                 1.4170
 Frc consts  --      1.5212                 1.5772                 1.7036
 IR Inten    --     32.7801                20.7022                 8.8230

                     61                     62                     63
                      A                      A                      A
 Frequencies --   1434.6786              1445.1126              1457.0560
 Red. masses --      1.2969                 1.3016                 1.3041
 Frc consts  --      1.5728                 1.6015                 1.6313
 IR Inten    --     27.9814                37.2520                25.8309

                     64                     65                     66
                      A                      A                      A
 Frequencies --   1462.2214              1539.1935              1562.5286
 Red. masses --      1.2759                 1.0882                 1.3110
 Frc consts  --      1.6072                 1.5190                 1.8858
 IR Inten    --     63.9798                 1.0634                41.0773

                     67                     68                     69
                      A                      A                      A
 Frequencies --   1722.1607              1738.4105              2967.4159
 Red. masses --      1.0789                 1.0684                 1.0826
 Frc consts  --      1.8853                 1.9023                 5.6168
 IR Inten    --     77.2238                26.1244                54.6520

                     70                     71                     72
                      A                      A                      A
 Frequencies --   3010.4599              3026.0490              3080.2116
 Red. masses --      1.0709                 1.0832                 1.0878
 Frc consts  --      5.7181                 5.8442                 6.0809
 IR Inten    --     58.9471                24.2170                36.6150

                     73                     74                     75
                      A                      A                      A
 Frequencies --   3095.4093              3100.2995              3119.8044
 Red. masses --      1.0872                 1.0947                 1.0861
 Frc consts  --      6.1376                 6.1995                 6.2286
 IR Inten    --      3.8593                39.9610                13.1344

                     76                     77                     78
                      A                      A                      A
 Frequencies --   3274.4188              3398.4152              3472.8987
 Red. masses --      1.0681                 1.0625                 1.0595
 Frc consts  --      6.7473                 7.2300                 7.5289
 IR Inten    --    530.9131              1049.2192               739.6838

                     79                     80                     81
                      A                      A                      A
 Frequencies --   3695.6909              3713.3301              3718.9469
 Red. masses --      1.0658                 1.0657                 1.0660
 Frc consts  --      8.5764                 8.6576                 8.6866
 IR Inten    --     20.5000                34.0291                 7.3070

                     82                     83                     84
                      A                      A                      A
 Frequencies --   3734.9051              3798.1165              3798.8335
 Red. masses --      1.0661                 1.0683                 1.0679
 Frc consts  --      8.7620                 9.0798                 9.0801
 IR Inten    --     17.5468                85.4316                41.2469

 - Thermochemistry -
 -------------------
 Temperature   298.150 Kelvin.  Pressure   1.00000 Atm.
 Atom     1 has atomic number  6 and mass  12.00000

 Molecular mass:   216.08452 amu.
 Principal axes and moments of inertia in atomic units:
                           1         2         3
     Eigenvalues --  2780.415003394.791054940.40055
           X            0.99994  -0.00928  -0.00635
           Y            0.00923   0.99993  -0.00752
           Z            0.00642   0.00746   0.99995
 This molecule is an asymmetric top.
 Rotational symmetry number  1.
 Warning -- assumption of classical behavior for rotation
           may cause significant error
 Rotational temperatures (Kelvin)      0.03115     0.02551     0.01753
 Rotational constants (GHZ):           0.64909     0.53162     0.36530
    1 imaginary frequencies ignored.
 Zero-point vibrational energy     652189.1 (Joules/Mol)
                                  155.87693 (Kcal/Mol)
 Warning -- explicit consideration of  29 degrees of freedom as
           vibrations may cause significant error
 Vibrational temperatures:     47.63    51.84    80.95   121.68   165.30
          (Kelvin)            208.41   243.53   271.44   295.80   353.68
                              371.81   392.60   398.71   414.90   453.06
                              475.25   488.30   501.46   534.93   590.95
                              630.71   650.27   670.80   698.20   709.65
                              731.39   756.87   787.42   882.95   945.80
                             1079.02  1129.41  1183.46  1215.53  1354.40
                             1371.66  1440.67  1455.44  1486.74  1503.22
                             1522.01  1565.81  1603.25  1618.48  1639.09
                             1650.75  1685.22  1728.26  1758.24  1804.46
                             1858.79  1904.77  1919.36  1937.33  1966.31
                             1995.53  2014.73  2020.37  2055.27  2064.18
                             2079.19  2096.38  2103.81  2214.55  2248.13
                             2477.80  2501.18  4269.44  4331.37  4353.80
                             4431.73  4453.60  4460.63  4488.70  4711.15
                             4889.56  4996.72  5317.27  5342.65  5350.73
                             5373.69  5464.64  5465.67

 Zero-point correction=                           0.248406 (Hartree/Particle)
 Thermal correction to Energy=                    0.265138
 Thermal correction to Enthalpy=                  0.266082
 Thermal correction to Gibbs Free Energy=         0.204352
 Sum of electronic and zero-point Energies=           -839.740783
 Sum of electronic and thermal Energies=              -839.724051
 Sum of electronic and thermal Enthalpies=            -839.723107
 Sum of electronic and thermal Free Energies=         -839.784837

                     E (Thermal)             CV                S
                      KCal/Mol        Cal/Mol-Kelvin    Cal/Mol-Kelvin
 Total                  166.377             62.387            129.923
 Electronic               0.000              0.000              0.000
 Translational            0.889              2.981             42.015
 Rotational               0.889              2.981             32.211
 Vibrational            164.599             56.425             55.697
 Vibration     1          0.594              1.983              5.634
 Vibration     2          0.594              1.982              5.466
 Vibration     3          0.596              1.975              4.584
 Vibration     4          0.601              1.960              3.782
 Vibration     5          0.608              1.937              3.185
 Vibration     6          0.616              1.908              2.739
 Vibration     7          0.625              1.880              2.444
 Vibration     8          0.633              1.855              2.241
 Vibration     9          0.640              1.832              2.083
 Vibration    10          0.660              1.770              1.760
 Vibration    11          0.667              1.749              1.672
 Vibration    12          0.676              1.723              1.578
 Vibration    13          0.678              1.716              1.551
 Vibration    14          0.685              1.695              1.484
 Vibration    15          0.702              1.645              1.336
 Vibration    16          0.713              1.615              1.259
 Vibration    17          0.719              1.597              1.215
 Vibration    18          0.726              1.578              1.173
 Vibration    19          0.743              1.530              1.072
 Vibration    20          0.775              1.447              0.924
 Vibration    21          0.799              1.387              0.832
 Vibration    22          0.811              1.357              0.790
 Vibration    23          0.824              1.325              0.748
 Vibration    24          0.841              1.283              0.696
 Vibration    25          0.849              1.265              0.675
 Vibration    26          0.864              1.232              0.638
 Vibration    27          0.881              1.192              0.596
 Vibration    28          0.902              1.146              0.550
 Vibration    29          0.973              1.003              0.427

 Optimization completed.
    -- Stationary point found.
 Normal termination of Gaussian 09 at Tue Jan 31 07:05:08 2017.
