 Gaussian 09, Revision E.01,
 Gaussian 09:  ES64L-G09RevE.01 30-Nov-2015

 ----------------------------------------------------------------------
 # opt=(calcfc,ts,noeigentest,maxcycle=1000,cartesian) b3lyp 6-31g(d) f
 req
 ----------------------------------------------------------------------

 ------------------------------------------
 ./3/glo_2w_beta_boat3_b3lyp_631Gd_iopt.out
 ------------------------------------------
 Symbolic Z-matrix:
 Charge =  0 Multiplicity = 1

 SCF Done:  E(RB3LYP) =  -839.984516643     A.U. after   13 cycles
 Optimization completed.
    -- Stationary point found.
 Normal termination of Gaussian 09 at Tue Jan 31 06:45:39 2017.

 --------------------------------------------------------------------
 #N Geom=AllCheck Guess=TCheck SCRF=Check GenChk RB3LYP/6-31G(d) Freq
 --------------------------------------------------------------------

 Structure from the checkpoint file:  "/scratch/10501385.yak.local/Gau-2630.chk"
 ------------------------------------------
 ./3/glo_2w_beta_boat3_b3lyp_631Gd_iopt.out
 ------------------------------------------
 Charge =  0 Multiplicity = 1

                         Standard orientation:
 ---------------------------------------------------------------------
 Center     Atomic      Atomic             Coordinates (Angstroms)
 Number     Number       Type             X           Y           Z
 ---------------------------------------------------------------------
      1          6           0        1.747069    0.748132    0.450511
      2          6           0        0.546681   -1.380820   -0.357529
      3          8           0       -0.651760    0.301439    0.957451
      4          6           0       -0.477879   -1.127421    0.748911
      5          6           0        0.291669    1.249580    0.441451
      6          6           0        1.877801   -0.725658    0.003801
      7          1           0       -0.118349   -1.559630    1.689391
      8          1           0        2.281041   -1.275818    0.864971
      9          1           0        0.163061   -0.951120   -1.296019
     10          1           0        0.229098    2.099460    1.137711
     11          1           0        2.306409    1.383002   -0.251089
     12          6           0       -0.121692    1.794140   -0.944219
     13          1           0       -1.212802    1.899599   -0.984009
     14          1           0        0.167679    1.111980   -1.747329
     15          8           0       -1.715688   -1.692052    0.508791
     16          1           0       -2.051389   -1.357772   -0.359879
     17          8           0        0.553757    3.018390   -1.218449
     18          1           0        0.120106    3.717620   -0.705159
     19          8           0        0.715963   -2.779259   -0.495359
     20          1           0        1.483143   -2.883469   -1.083609
     21          8           0        2.717491   -0.908997   -1.138729
     22          1           0        3.635131   -0.756677   -0.864499
     23          8           0        2.327589    0.803862    1.755771
     24          1           0        2.301658    1.725782    2.057041
     25          8           0       -2.906590   -0.216463   -1.475749
     26          1           0       -3.659190   -0.565814   -1.976029
     27          1           0       -3.295520    0.222007   -0.676459
     28          8           0       -3.466101    0.646876    1.054321
     29          1           0       -3.638000   -0.248104    1.391871
     30          1           0       -2.491251    0.700857    1.161201
 ---------------------------------------------------------------------

 SCF Done:  E(RB3LYP) =  -839.984516643     A.U. after    1 cycles

 The electronic state is 1-A.
 Alpha  occ. eigenvalues --  -19.16550 -19.16377 -19.15711 -19.15701 -19.14606
 Alpha  occ. eigenvalues --  -19.14542 -19.14226 -19.14016 -10.28574 -10.25095
 Alpha  occ. eigenvalues --  -10.24637 -10.24448 -10.23733 -10.23538  -1.06742
 Alpha  occ. eigenvalues --   -1.04180  -1.03098  -1.02620  -1.01249  -1.01035
 Alpha  occ. eigenvalues --   -0.99953  -0.99215  -0.78642  -0.76570  -0.69102
 Alpha  occ. eigenvalues --   -0.64880  -0.63594  -0.58097  -0.56239  -0.52969
 Alpha  occ. eigenvalues --   -0.52922  -0.51869  -0.51011  -0.50096  -0.49507
 Alpha  occ. eigenvalues --   -0.47727  -0.46476  -0.45302  -0.43780  -0.43565
 Alpha  occ. eigenvalues --   -0.42256  -0.40565  -0.39093  -0.38224  -0.36493
 Alpha  occ. eigenvalues --   -0.36190  -0.35366  -0.34983  -0.33672  -0.32797
 Alpha  occ. eigenvalues --   -0.31044  -0.30063  -0.29727  -0.29424  -0.28453
 Alpha  occ. eigenvalues --   -0.27063  -0.26661  -0.25483
 Alpha virt. eigenvalues --    0.05575   0.05942   0.06263   0.06609   0.08918
 Alpha virt. eigenvalues --    0.10488   0.10870   0.11327   0.12561   0.13208
 Alpha virt. eigenvalues --    0.15848   0.16775   0.17146   0.17284   0.19039

 Mulliken charges:
               1
     1  C    0.096238
     2  C    0.071191
     3  O   -0.554805
     4  C    0.366895
     5  C    0.122436
     6  C    0.085036
     7  H    0.147464
     8  H    0.160606
     9  H    0.142130
    10  H    0.113186
    11  H    0.154039
    12  C   -0.086151
    13  H    0.157041
    14  H    0.171270
    15  O   -0.646128
    16  H    0.423389
    17  O   -0.614397
    18  H    0.392851
    19  O   -0.632912
    20  H    0.404498
    21  O   -0.645926
    22  H    0.403826
    23  O   -0.641909
    24  H    0.392602
    25  O   -0.819107
    26  H    0.395492
    27  H    0.420742
    28  O   -0.811454
    29  H    0.399914
    30  H    0.431943
 Sum of Mulliken charges =  -0.00000

 Dipole moment (field-independent basis, Debye):
    X=              1.0484    Y=              2.1211    Z=              0.0811  Tot=              2.3674
 Quadrupole moment (field-independent basis, Debye-Ang):
   XX=            -72.1555   YY=            -82.8697   ZZ=            -85.9186
   XY=              1.6644   XZ=              5.4757   YZ=              7.3680

  Exact polarizability: 101.332   0.868  98.464   1.712   2.598  84.317
 Approx polarizability: 129.233   2.843 133.131   0.114   2.839 123.370

 ******    1 imaginary frequencies (negative Signs) ******

                      1                      2                      3
                      A                      A                      A
 Frequencies --    -49.4311                23.3979                58.3708
 Red. masses --      4.5475                 5.6952                 4.9648
 Frc consts  --      0.0065                 0.0018                 0.0100
 IR Inten    --      0.4446                 1.0519                 8.3463

                      4                      5                      6
                      A                      A                      A
 Frequencies --     71.4907                88.8163               101.8621
 Red. masses --      5.0546                 3.3692                 6.1948
 Frc consts  --      0.0152                 0.0157                 0.0379
 IR Inten    --      6.4963                 6.6868                 3.2991

                      7                      8                      9
                      A                      A                      A
 Frequencies --    115.0568               158.6004               178.5926
 Red. masses --      6.6052                 3.9451                 3.7235
 Frc consts  --      0.0515                 0.0585                 0.0700
 IR Inten    --      0.3298                18.0328                 6.1164

                     10                     11                     12
                      A                      A                      A
 Frequencies --    227.5614               244.6348               264.9530
 Red. masses --      5.9063                 3.7548                 5.2384
 Frc consts  --      0.1802                 0.1324                 0.2167
 IR Inten    --      2.8730                15.5935                 8.3799

                     13                     14                     15
                      A                      A                      A
 Frequencies --    267.0590               278.1944               295.9684
 Red. masses --      4.6005                 4.5201                 1.2531
 Frc consts  --      0.1933                 0.2061                 0.0647
 IR Inten    --      8.7477                 9.0314                85.5197

                     16                     17                     18
                      A                      A                      A
 Frequencies --    303.7984               311.9458               321.1645
 Red. masses --      1.2256                 1.5772                 1.7566
 Frc consts  --      0.0666                 0.0904                 0.1068
 IR Inten    --     46.4437                39.7368               124.2259

                     19                     20                     21
                      A                      A                      A
 Frequencies --    332.1497               354.0525               375.5296
 Red. masses --      1.2430                 1.4571                 3.4523
 Frc consts  --      0.0808                 0.1076                 0.2868
 IR Inten    --     89.4211               106.4731                10.9013

                     22                     23                     24
                      A                      A                      A
 Frequencies --    390.6328               394.3599               451.7210
 Red. masses --      1.1375                 3.9291                 1.2169
 Frc consts  --      0.1023                 0.3600                 0.1463
 IR Inten    --     13.7749                 1.9927                93.2474

                     25                     26                     27
                      A                      A                      A
 Frequencies --    462.0998               471.7630               508.2735
 Red. masses --      4.4356                 5.1789                 2.3512
 Frc consts  --      0.5581                 0.6791                 0.3579
 IR Inten    --      8.2465                15.5945                48.0327

                     28                     29                     30
                      A                      A                      A
 Frequencies --    526.8337               534.2149               568.9972
 Red. masses --      3.1207                 1.7053                 3.9790
 Frc consts  --      0.5103                 0.2867                 0.7590
 IR Inten    --      7.5064               214.3512                25.8293

                     31                     32                     33
                      A                      A                      A
 Frequencies --    606.5623               752.2423               784.1625
 Red. masses --      3.3052                 1.1185                 3.5298
 Frc consts  --      0.7165                 0.3729                 1.2788
 IR Inten    --     22.8861               303.3335                54.2942

                     34                     35                     36
                      A                      A                      A
 Frequencies --    790.8224               852.6096               912.8643
 Red. masses --      1.0835                 3.0665                 3.5235
 Frc consts  --      0.3992                 1.3134                 1.7300
 IR Inten    --    109.3297                31.6025               147.8931

                     37                     38                     39
                      A                      A                      A
 Frequencies --    974.7032              1016.9434              1029.2593
 Red. masses --      2.5608                 1.4838                 2.1674
 Frc consts  --      1.4334                 0.9041                 1.3528
 IR Inten    --     47.5344                62.6127                 0.8168

                     40                     41                     42
                      A                      A                      A
 Frequencies --   1036.7179              1052.2446              1068.4698
 Red. masses --      2.5085                 3.1977                 5.9912
 Frc consts  --      1.5885                 2.0861                 4.0299
 IR Inten    --     38.2812                10.9986               227.5829

                     43                     44                     45
                      A                      A                      A
 Frequencies --   1086.6832              1092.6460              1102.0026
 Red. masses --      3.7125                 2.5324                 2.8103
 Frc consts  --      2.5830                 1.7813                 2.0108
 IR Inten    --     43.8884                62.5855                22.3679

                     46                     47                     48
                      A                      A                      A
 Frequencies --   1122.1851              1146.7171              1192.2355
 Red. masses --      2.9285                 4.4385                 1.2694
 Frc consts  --      2.1728                 3.4387                 1.0631
 IR Inten    --    152.5218                50.8708                24.0857

                     49                     50                     51
                      A                      A                      A
 Frequencies --   1197.5687              1218.0805              1245.1459
 Red. masses --      3.7573                 1.2001                 1.1509
 Frc consts  --      3.1749                 1.0491                 1.0513
 IR Inten    --    117.5346                18.3831                52.8461

                     52                     53                     54
                      A                      A                      A
 Frequencies --   1274.3221              1327.5980              1342.8924
 Red. masses --      1.1588                 1.4091                 1.1518
 Frc consts  --      1.1087                 1.4632                 1.2238
 IR Inten    --     31.1409                34.8040                 8.3890

                     55                     56                     57
                      A                      A                      A
 Frequencies --   1352.9735              1364.9601              1373.4994
 Red. masses --      1.1891                 1.4223                 1.2742
 Frc consts  --      1.2825                 1.5613                 1.4163
 IR Inten    --      7.6589                 7.5244                32.4403

                     58                     59                     60
                      A                      A                      A
 Frequencies --   1391.5762              1394.3563              1415.0972
 Red. masses --      1.2704                 1.2873                 1.2892
 Frc consts  --      1.4494                 1.4746                 1.5210
 IR Inten    --     18.4071                 8.3681                30.6299

                     61                     62                     63
                      A                      A                      A
 Frequencies --   1432.7895              1446.7014              1462.5174
 Red. masses --      1.2739                 1.4651                 1.4281
 Frc consts  --      1.5408                 1.8066                 1.7998
 IR Inten    --      9.0548                 3.8349                 2.1019

                     64                     65                     66
                      A                      A                      A
 Frequencies --   1476.6191              1520.4354              1521.1310
 Red. masses --      1.5815                 1.1110                 1.1785
 Frc consts  --      2.0317                 1.5132                 1.6066
 IR Inten    --     26.2749                15.1893                75.6350

                     67                     68                     69
                      A                      A                      A
 Frequencies --   1742.8095              1761.2434              3009.8850
 Red. masses --      1.0715                 1.0780                 1.0853
 Frc consts  --      1.9175                 1.9701                 5.7927
 IR Inten    --     99.5225                97.0777                52.7542

                     70                     71                     72
                      A                      A                      A
 Frequencies --   3012.2578              3036.2304              3042.0895
 Red. masses --      1.0820                 1.0847                 1.0847
 Frc consts  --      5.7845                 5.8916                 5.9145
 IR Inten    --     23.5469                16.0276                25.8091

                     73                     74                     75
                      A                      A                      A
 Frequencies --   3065.4091              3081.6600              3137.8198
 Red. masses --      1.0661                 1.0872                 1.1007
 Frc consts  --      5.9021                 6.0833                 6.3852
 IR Inten    --     26.8610                72.0835                20.8050

                     76                     77                     78
                      A                      A                      A
 Frequencies --   3353.7053              3437.9451              3571.5388
 Red. masses --      1.0649                 1.0646                 1.0577
 Frc consts  --      7.0570                 7.4137                 7.9489
 IR Inten    --    225.2193               623.1912               442.2353

                     79                     80                     81
                      A                      A                      A
 Frequencies --   3718.4078              3738.7633              3742.1635
 Red. masses --      1.0654                 1.0660                 1.0665
 Frc consts  --      8.6792                 8.7795                 8.7991
 IR Inten    --     34.5065                10.4281                17.6127

                     82                     83                     84
                      A                      A                      A
 Frequencies --   3749.8569              3766.4574              3797.9272
 Red. masses --      1.0665                 1.0679                 1.0681
 Frc consts  --      8.8360                 8.9259                 9.0770
 IR Inten    --     26.5201                57.2155                41.5273

 - Thermochemistry -
 -------------------
 Temperature   298.150 Kelvin.  Pressure   1.00000 Atm.
 Atom     1 has atomic number  6 and mass  12.00000

 Molecular mass:   216.08452 amu.
 Principal axes and moments of inertia in atomic units:
                           1         2         3
     Eigenvalues --  2567.748603517.309734527.39701
           X            0.99997  -0.00278   0.00778
           Y            0.00272   0.99996   0.00817
           Z           -0.00780  -0.00815   0.99994
 This molecule is an asymmetric top.
 Rotational symmetry number  1.
 Warning -- assumption of classical behavior for rotation
           may cause significant error
 Rotational temperatures (Kelvin)      0.03373     0.02463     0.01913
 Rotational constants (GHZ):           0.70285     0.51310     0.39863
    1 imaginary frequencies ignored.
 Zero-point vibrational energy     650927.6 (Joules/Mol)
                                  155.57543 (Kcal/Mol)
 Warning -- explicit consideration of  30 degrees of freedom as
           vibrations may cause significant error
 Vibrational temperatures:     33.66    83.98   102.86   127.79   146.56
          (Kelvin)            165.54   228.19   256.95   327.41   351.97
                              381.21   384.24   400.26   425.83   437.10
                              448.82   462.08   477.89   509.40   540.30
                              562.03   567.40   649.92   664.86   678.76
                              731.29   758.00   768.62   818.66   872.71
                             1082.31  1128.23  1137.82  1226.71  1313.41
                             1402.38  1463.15  1480.87  1491.60  1513.94
                             1537.29  1563.49  1572.07  1585.53  1614.57
                             1649.87  1715.36  1723.03  1752.54  1791.48
                             1833.46  1910.12  1932.12  1946.62  1963.87
                             1976.16  2002.17  2006.17  2036.01  2061.46
                             2081.48  2104.23  2124.52  2187.56  2188.57
                             2507.51  2534.03  4330.55  4333.96  4368.45
                             4376.88  4410.43  4433.82  4514.62  4825.23
                             4946.43  5138.64  5349.95  5379.24  5384.13
                             5395.20  5419.09  5464.36

 Zero-point correction=                           0.247925 (Hartree/Particle)
 Thermal correction to Energy=                    0.265002
 Thermal correction to Enthalpy=                  0.265946
 Thermal correction to Gibbs Free Energy=         0.203758
 Sum of electronic and zero-point Energies=           -839.736591
 Sum of electronic and thermal Energies=              -839.719515
 Sum of electronic and thermal Enthalpies=            -839.718570
 Sum of electronic and thermal Free Energies=         -839.780758

                     E (Thermal)             CV                S
                      KCal/Mol        Cal/Mol-Kelvin    Cal/Mol-Kelvin
 Total                  166.291             63.277            130.885
 Electronic               0.000              0.000              0.000
 Translational            0.889              2.981             42.015
 Rotational               0.889              2.981             32.081
 Vibrational            164.514             57.315             56.790
 Vibration     1          0.593              1.985              6.323
 Vibration     2          0.596              1.974              4.512
 Vibration     3          0.598              1.968              4.112
 Vibration     4          0.602              1.957              3.686
 Vibration     5          0.604              1.948              3.418
 Vibration     6          0.608              1.937              3.182
 Vibration     7          0.621              1.893              2.566
 Vibration     8          0.629              1.869              2.343
 Vibration     9          0.651              1.799              1.898
 Vibration    10          0.660              1.772              1.769
 Vibration    11          0.671              1.737              1.629
 Vibration    12          0.672              1.734              1.615
 Vibration    13          0.679              1.714              1.545
 Vibration    14          0.690              1.681              1.440
 Vibration    15          0.695              1.667              1.396
 Vibration    16          0.700              1.651              1.352
 Vibration    17          0.707              1.633              1.304
 Vibration    18          0.714              1.611              1.250
 Vibration    19          0.730              1.567              1.148
 Vibration    20          0.746              1.522              1.057
 Vibration    21          0.758              1.490              0.998
 Vibration    22          0.761              1.482              0.984
 Vibration    23          0.810              1.357              0.791
 Vibration    24          0.820              1.334              0.760
 Vibration    25          0.829              1.313              0.733
 Vibration    26          0.863              1.232              0.638
 Vibration    27          0.882              1.191              0.594
 Vibration    28          0.889              1.174              0.578
 Vibration    29          0.925              1.098              0.506
 Vibration    30          0.965              1.018              0.439

 Optimization completed.
    -- Stationary point found.
 Normal termination of Gaussian 09 at Tue Jan 31 07:03:37 2017.
