 Gaussian 09, Revision E.01,
 Gaussian 09:  ES64L-G09RevE.01 30-Nov-2015

 -----------------
 # opt freq hf/gen
 -----------------

 -----------------
 density at points
 -----------------
 Symbolic Z-matrix:
 Charge =  0 Multiplicity = 1

 SCF Done:  E(RHF) =  -114.828143342     A.U. after   11 cycles
 SCF Done:  E(RHF) =  -114.830836901     A.U. after   10 cycles
 SCF Done:  E(RHF) =  -114.831222708     A.U. after    9 cycles
 SCF Done:  E(RHF) =  -114.831239935     A.U. after    9 cycles
 SCF Done:  E(RHF) =  -114.831240994     A.U. after    9 cycles
 Optimization completed.
    -- Stationary point found.
 Normal termination of Gaussian 09 at Wed Nov 23 19:02:01 2016.

 ---------------------------------------------------------------
 #N Geom=AllCheck Guess=TCheck SCRF=Check GenChk RHF/ChkBas Freq
 ---------------------------------------------------------------

 Structure from the checkpoint file:  "//home/aalrawas/scratch/Gau-19995.chk"
 -----------------
 density at points
 -----------------
 Charge =  0 Multiplicity = 1

                         Standard orientation:
 ---------------------------------------------------------------------
 Center     Atomic      Atomic             Coordinates (Angstroms)
 Number     Number       Type             X           Y           Z
 ---------------------------------------------------------------------
      1          6           0       -0.687137   -0.022152    0.000012
      2          8           0        0.760473    0.122178    0.000006
      3          1           0       -1.038358   -0.548571   -0.890675
      4          1           0       -1.038893   -0.541928    0.894370
      5          1           0       -1.085534    0.989299   -0.003899
      6          1           0        1.201825   -0.743312    0.000083
 ---------------------------------------------------------------------

 SCF Done:  E(RHF) =  -114.831240994     A.U. after    1 cycles

 The electronic state is 1-A.
 Alpha  occ. eigenvalues --  -20.54321 -11.27020  -1.35014  -0.93392  -0.67185
 Alpha  occ. eigenvalues --   -0.61619  -0.57893  -0.48762  -0.44644
 Alpha virt. eigenvalues --    0.21044   0.28716   0.29021   0.29295   0.37917
 Alpha virt. eigenvalues --    0.45563   0.66035   0.76673   0.77643   0.85117
 Alpha virt. eigenvalues --    1.01595   1.09033   1.11435   1.25527   1.50308

 Mulliken charges:
               1
     1  C   -0.318595
     2  O   -0.606656
     3  H    0.182561
     4  H    0.182618
     5  H    0.217181
     6  H    0.342890
 Sum of Mulliken charges =  -0.00000

 Dipole moment (field-independent basis, Debye):
    X=             -1.2972    Y=             -1.9259    Z=             -0.0004  Tot=              2.3220
 Quadrupole moment (field-independent basis, Debye-Ang):
   XX=            -12.6697   YY=            -12.3501   ZZ=            -13.6341
   XY=             -2.6307   XZ=              0.0008   YZ=             -0.0007

  Exact polarizability:  16.317  -1.345  14.656  -0.001   0.001  12.440
 Approx polarizability:  11.983  -0.758  11.743  -0.001   0.000   9.552

                      1                      2                      3
                      A                      A                      A
 Frequencies --    337.7642              1083.2699              1119.5325
 Red. masses --      1.0754                 3.2896                 1.2994
 Frc consts  --      0.0723                 2.2744                 0.9596
 IR Inten    --    190.6054               120.2872                 6.9602
 Raman Activ --      5.5172                 8.7868                 9.8020

                      4                      5                      6
                      A                      A                      A
 Frequencies --   1217.7859              1450.4006              1604.6889
 Red. masses --      1.2362                 1.2690                 1.1515
 Frc consts  --      1.0801                 1.5729                 1.7470
 IR Inten    --      1.2267                26.7601                 4.7953
 Raman Activ --      8.7916                 6.5160                 4.5554

                      7                      8                      9
                      A                      A                      A
 Frequencies --   1642.2159              1655.7368              3130.1725
 Red. masses --      1.0606                 1.0582                 1.0334
 Frc consts  --      1.6852                 1.7093                 5.9656
 IR Inten    --      4.7281                 5.2762                44.1603
 Raman Activ --     19.5931                19.4278               143.6089

                     10                     11                     12
                      A                      A                      A
 Frequencies --   3219.4714              3281.7443              3851.8517
 Red. masses --      1.1061                 1.1026                 1.0672
 Frc consts  --      6.7551                 6.9967                 9.3290
 IR Inten    --     77.6111                29.2711                20.5101
 Raman Activ --     83.8679                92.5607               104.4699

 - Thermochemistry -
 -------------------
 Temperature   298.150 Kelvin.  Pressure   1.00000 Atm.
 Atom     1 has atomic number  6 and mass  12.00000

 Molecular mass:    32.02621 amu.
 Principal axes and moments of inertia in atomic units:
                           1         2         3
     Eigenvalues --    14.05573  75.90861  78.49635
           X            0.99899  -0.04490   0.00000
           Y            0.04490   0.99899  -0.00000
           Z           -0.00000   0.00000   1.00000
 This molecule is an asymmetric top.
 Rotational symmetry number  1.
 Rotational temperatures (Kelvin)      6.16217     1.14103     1.10341
 Rotational constants (GHZ):         128.39899    23.77519    22.99140
 Zero-point vibrational energy     141127.3 (Joules/Mol)
                                   33.73022 (Kcal/Mol)
 Warning -- explicit consideration of   1 degrees of freedom as
           vibrations may cause significant error
 Vibrational temperatures:    485.97  1558.58  1610.76  1752.12  2086.80
          (Kelvin)           2308.79  2362.78  2382.23  4503.61  4632.10
                             4721.69  5541.95

 Zero-point correction=                           0.053753 (Hartree/Particle)
 Thermal correction to Energy=                    0.057040
 Thermal correction to Enthalpy=                  0.057984
 Thermal correction to Gibbs Free Energy=         0.030992
 Sum of electronic and zero-point Energies=           -114.777488
 Sum of electronic and thermal Energies=              -114.774201
 Sum of electronic and thermal Enthalpies=            -114.773257
 Sum of electronic and thermal Free Energies=         -114.800249

                     E (Thermal)             CV                S
                      KCal/Mol        Cal/Mol-Kelvin    Cal/Mol-Kelvin
 Total                   35.793              8.543             56.810
 Electronic               0.000              0.000              0.000
 Translational            0.889              2.981             36.324
 Rotational               0.889              2.981             19.066
 Vibrational             34.016              2.581              1.420
 Vibration     1          0.718              1.600              1.223

 Normal termination of Gaussian 09 at Wed Nov 23 19:02:03 2016.
