 Gaussian 09, Revision D.01,
 Gaussian 09:  EM64L-G09RevD.01 24-Apr-2013

 ------------
 # opt hf/gen
 ------------

 --
 F2
 --
 Symbolic Z-matrix:
 Charge =  0 Multiplicity = 1

 SCF Done:  E(RHF) =  -198.407152508     A.U. after    7 cycles
 SCF Done:  E(RHF) =  -198.407168987     A.U. after    7 cycles
 SCF Done:  E(RHF) =  -198.407169982     A.U. after    6 cycles
 Optimization completed.
    -- Stationary point found.

                         Standard orientation:
 ---------------------------------------------------------------------
 Center     Atomic      Atomic             Coordinates (Angstroms)
 Number     Number       Type             X           Y           Z
 ---------------------------------------------------------------------
      1          9           0        0.000000    0.000000    0.702885
      2          9           0        0.000000    0.000000   -0.702885
 ---------------------------------------------------------------------

 The electronic state is 1-SGG.
 Alpha  occ. eigenvalues --  -26.41941 -26.41927  -1.77611  -1.49537  -0.79997
 Alpha  occ. eigenvalues --   -0.79997  -0.73047  -0.65233  -0.65233
 Alpha virt. eigenvalues --    0.11144   0.56434   0.64679   1.55540   1.55540
 Alpha virt. eigenvalues --    1.78626   1.78626   1.97663   2.06105

 Mulliken charges:
               1
     1  F    0.000000
     2  F    0.000000
 Sum of Mulliken charges =   0.00000

 Dipole moment (field-independent basis, Debye):
    X=              0.0000    Y=              0.0000    Z=              0.0000  Tot=              0.0000
 Quadrupole moment (field-independent basis, Debye-Ang):
   XX=             -9.2361   YY=             -9.2361   ZZ=             -8.9956
   XY=              0.0000   XZ=              0.0000   YZ=              0.0000

 1\1\GINC-CHONGEE-INSPIRON-3521\FOpt\RHF\Gen\F2\CHONGEE\17-Nov-2016\0\\
 # opt hf/gen\\F2\\0,1\F,0.,0.,0.0021154859\F,0.,0.,1.4078845141\\Versi
 on=EM64L-G09RevD.01\State=1-SGG\HF=-198.40717\RMSD=3.796e-09\RMSF=3.38
 1e-09\Dipole=0.,0.,0.\Quadrupole=-0.0595937,-0.0595937,0.1191873,0.,0.
 ,0.\PG=D*H [C*(F1.F1)]\\@

 LET US PLACE AT THE END OF EVERY CHAPTER.....THE

 Normal termination of Gaussian 09 at Thu Nov 17 21:12:14 2016.
