 Gaussian 09, Revision E.01,
 Gaussian 09:  ES64L-G09RevE.01 30-Nov-2015

 --------------------------------------------------
 # b3lyp/6-31g(d) irc=(calcfc,reverse,maxpoints=20)
 --------------------------------------------------

 ------------------------------------------
 ./5/glo_1w_beta_boat5_b3lyp_631Gd_iopt.out
 ------------------------------------------
 Symbolic Z-matrix:
 Charge =  0 Multiplicity = 1

 SCF Done:  E(RB3LYP) =  -839.980838148     A.U. after   14 cycles
 SCF Done:  E(RB3LYP) =  -839.980840429     A.U. after   11 cycles
 SCF Done:  E(RB3LYP) =  -839.980841713     A.U. after    9 cycles
 SCF Done:  E(RB3LYP) =  -839.980841934     A.U. after    9 cycles

                          Input orientation:
 ---------------------------------------------------------------------
 Center     Atomic      Atomic             Coordinates (Angstroms)
 Number     Number       Type             X           Y           Z
 ---------------------------------------------------------------------
      1          8           0       -1.446021    0.046496   -0.252893
      2          6           0        0.301560    1.108703    1.127937
      3          6           0        0.719384   -1.103110   -0.072240
      4          6           0        1.312584    0.270780    0.347786
      5          6           0       -0.794697   -1.203167    0.141645
      6          6           0       -0.997472    1.276464    0.336475
      7          1           0        2.162989    0.063769    1.015816
      8          1           0       -1.761062    1.621006    1.048945
      9          1           0        0.721524    2.105024    1.323715
     10          1           0        0.881558   -1.210210   -1.152762
     11          6           0       -0.866291    2.267773   -0.849428
     12          1           0       -1.850052    2.687974   -1.098033
     13          1           0       -0.510129    1.702066   -1.709832
     14          1           0       -1.028365   -1.388779    1.196154
     15          8           0       -1.288974   -2.187826   -0.688801
     16          1           0       -2.252250   -2.258720   -0.507596
     17          8           0        0.094542    3.311236   -0.654881
     18          1           0       -0.241515    3.927366    0.014735
     19          8           0        1.335650   -2.146791    0.657842
     20          1           0        2.256718   -2.161858    0.324243
     21          8           0        1.792968    0.936314   -0.825677
     22          1           0        1.732271    1.901341   -0.698612
     23          8           0       -0.015593    0.484596    2.371571
     24          1           0        0.670873   -0.171039    2.578103
     25          8           0       -3.911802   -1.313514   -0.401438
     26          1           0       -3.284370   -0.562395   -0.352965
     27          1           0       -4.181033   -1.330722   -1.333013
     28          8           0        3.665136   -1.270731   -0.847523
     29          1           0        3.271350   -0.398667   -1.050555
     30          1           0        3.694536   -1.725635   -1.702738
 ---------------------------------------------------------------------

 Alpha  occ. eigenvalues --  -19.17903 -19.16918 -19.16135 -19.15917 -19.15355
 Alpha  occ. eigenvalues --  -19.14643 -19.13465 -19.13148 -10.27818 -10.25217
 Alpha  occ. eigenvalues --  -10.25110 -10.24861 -10.24724 -10.23137  -1.06607
 Alpha  occ. eigenvalues --   -1.04680  -1.03982  -1.02990  -1.01256  -1.00550
 Alpha  occ. eigenvalues --   -1.00381  -0.99307  -0.78293  -0.76355  -0.69694
 Alpha  occ. eigenvalues --   -0.66252  -0.62809  -0.56309  -0.55760  -0.53957
 Alpha  occ. eigenvalues --   -0.53296  -0.52943  -0.52170  -0.50987  -0.49904
 Alpha  occ. eigenvalues --   -0.49132  -0.45818  -0.45365  -0.42847  -0.42360
 Alpha  occ. eigenvalues --   -0.41644  -0.41182  -0.39997  -0.38748  -0.38436
 Alpha  occ. eigenvalues --   -0.36030  -0.35549  -0.34911  -0.33559  -0.32888
 Alpha  occ. eigenvalues --   -0.31496  -0.30747  -0.30028  -0.29184  -0.28905
 Alpha  occ. eigenvalues --   -0.27077  -0.25698  -0.25466
 Alpha virt. eigenvalues --    0.03601   0.06041   0.06346   0.06788   0.08924
 Alpha virt. eigenvalues --    0.10741   0.11529   0.12849   0.13494   0.14894
 Alpha virt. eigenvalues --    0.15116   0.16090   0.17452   0.18244   0.18510

 Mulliken charges:
               1
     1  O   -0.562736
     2  C    0.079824
     3  C    0.096038
     4  C    0.074010
     5  C    0.363785
     6  C    0.134309
     7  H    0.139738
     8  H    0.140743
     9  H    0.121163
    10  H    0.142369
    11  C   -0.077057
    12  H    0.142641
    13  H    0.187478
    14  H    0.141631
    15  O   -0.643468
    16  H    0.415743
    17  O   -0.624129
    18  H    0.402193
    19  O   -0.661525
    20  H    0.422555
    21  O   -0.670966
    22  H    0.427590
    23  O   -0.637893
    24  H    0.410526
    25  O   -0.797411
    26  H    0.417720
    27  H    0.394042
    28  O   -0.805774
    29  H    0.427595
    30  H    0.399267
 Sum of Mulliken charges =  -0.00000

 Dipole moment (field-independent basis, Debye):
    X=              0.3670    Y=              4.2820    Z=             -1.5647  Tot=              4.5737
 Quadrupole moment (field-independent basis, Debye-Ang):
   XX=            -83.5845   YY=            -81.1997   ZZ=            -81.1017
   XY=             -5.1644   XZ=              3.4542   YZ=              6.2898

  Exact polarizability:   0.000   0.000   0.000   0.000   0.000   0.000
 Approx polarizability: 126.885  -2.322 136.137  -0.251   1.071 123.720

 Normal termination of Gaussian 09 at Tue Jan 31 14:18:46 2017.
