 Gaussian 09, Revision E.01,
 Gaussian 09:  ES64L-G09RevE.01 30-Nov-2015

 --------------------------------------------------
 # b3lyp/6-31g(d) irc=(calcfc,reverse,maxpoints=20)
 --------------------------------------------------

 -------------------------------------------
 ./5/glo_1w_alpha_boat5_b3lyp_631Gd_iopt.out
 -------------------------------------------
 Symbolic Z-matrix:
 Charge =  0 Multiplicity = 1

 SCF Done:  E(RB3LYP) =  -839.986361019     A.U. after   14 cycles
 SCF Done:  E(RB3LYP) =  -839.986366629     A.U. after   11 cycles

                          Input orientation:
 ---------------------------------------------------------------------
 Center     Atomic      Atomic             Coordinates (Angstroms)
 Number     Number       Type             X           Y           Z
 ---------------------------------------------------------------------
      1          8           0       -1.535143   -0.409564   -0.692524
      2          6           0       -0.248288    0.841992    1.039103
      3          6           0        0.894372   -0.368907   -0.926361
      4          6           0        1.093909    0.490973    0.333450
      5          6           0       -0.363087   -1.226719   -0.791682
      6          6           0       -1.446307    0.816735    0.080046
      7          1           0        1.680513   -0.079709    1.064638
      8          1           0       -2.352664    0.840190    0.699883
      9          1           0       -0.186720    1.862803    1.433326
     10          1           0        0.724424    0.306017   -1.771217
     11          6           0       -1.486232    2.020199   -0.877678
     12          1           0       -2.265997    1.844862   -1.632921
     13          1           0       -0.532343    2.139400   -1.397188
     14          8           0       -1.688771    3.237900   -0.170109
     15          1           0       -2.591103    3.229244    0.186177
     16          8           0        2.026764   -1.132962   -1.282215
     17          1           0        2.381583   -1.560159   -0.483021
     18          8           0        1.837978    1.637395   -0.093867
     19          1           0        1.957394    2.217317    0.675595
     20          8           0       -0.466847   -0.002800    2.158246
     21          1           0       -0.403950   -0.915288    1.807482
     22          1           0       -0.517285   -1.818444   -1.699533
     23          8           0       -0.222371   -2.079256    0.326280
     24          1           0       -1.034912   -2.641016    0.343045
     25          8           0        4.142568   -0.471321    0.424162
     26          1           0        4.495039    0.070424    1.146378
     27          1           0        3.725121    0.167413   -0.179802
     28          8           0       -2.861943   -2.779906    0.126424
     29          1           0       -3.291231   -2.702060    0.992407
     30          1           0       -2.821636   -1.862785   -0.213722
 ---------------------------------------------------------------------

 Alpha  occ. eigenvalues --  -19.17781 -19.16825 -19.16671 -19.16406 -19.15982
 Alpha  occ. eigenvalues --  -19.14541 -19.13957 -19.13614 -10.29422 -10.25046
 Alpha  occ. eigenvalues --  -10.24511 -10.24367 -10.24352 -10.24014  -1.08186
 Alpha  occ. eigenvalues --   -1.04033  -1.03204  -1.02502  -1.02068  -1.01190
 Alpha  occ. eigenvalues --   -1.00989  -0.99626  -0.78402  -0.77186  -0.69222
 Alpha  occ. eigenvalues --   -0.65998  -0.63740  -0.58677  -0.55601  -0.54275
 Alpha  occ. eigenvalues --   -0.53912  -0.52409  -0.51891  -0.50784  -0.49042
 Alpha  occ. eigenvalues --   -0.48760  -0.46331  -0.45041  -0.43559  -0.42511
 Alpha  occ. eigenvalues --   -0.41930  -0.41731  -0.39796  -0.38963  -0.37940
 Alpha  occ. eigenvalues --   -0.37211  -0.36114  -0.35512  -0.34313  -0.32207
 Alpha  occ. eigenvalues --   -0.31843  -0.30635  -0.30320  -0.29861  -0.29242
 Alpha  occ. eigenvalues --   -0.27632  -0.26323  -0.25654
 Alpha virt. eigenvalues --    0.04536   0.04784   0.05744   0.08183   0.09489
 Alpha virt. eigenvalues --    0.09743   0.11274   0.12522   0.13303   0.14004
 Alpha virt. eigenvalues --    0.14205   0.15502   0.16239   0.17937   0.18176

 Mulliken charges:
               1
     1  O   -0.542391
     2  C    0.103446
     3  C    0.118063
     4  C    0.057465
     5  C    0.292107
     6  C    0.096092
     7  H    0.152269
     8  H    0.126598
     9  H    0.148237
    10  H    0.162035
    11  C   -0.064976
    12  H    0.139281
    13  H    0.175457
    14  O   -0.610423
    15  H    0.392625
    16  O   -0.634221
    17  H    0.420114
    18  O   -0.639476
    19  H    0.397822
    20  O   -0.665790
    21  H    0.411837
    22  H    0.158972
    23  O   -0.661173
    24  H    0.431931
    25  O   -0.795393
    26  H    0.386481
    27  H    0.413509
    28  O   -0.795304
    29  H    0.402117
    30  H    0.422689
 Sum of Mulliken charges =  -0.00000

 Dipole moment (field-independent basis, Debye):
    X=             -2.8478    Y=              1.9324    Z=              2.0243  Tot=              3.9927
 Quadrupole moment (field-independent basis, Debye-Ang):
   XX=            -74.9461   YY=            -88.5151   ZZ=            -86.5080
   XY=              5.4658   XZ=              4.0277   YZ=             -0.6082

  Exact polarizability:   0.000   0.000   0.000   0.000   0.000   0.000
 Approx polarizability: 126.231  -1.901 132.829  -1.281   1.749 125.431

 Normal termination of Gaussian 09 at Tue Jan 31 13:49:16 2017.
