 Gaussian 09, Revision D.01,
 Gaussian 09:  ES64L-G09RevD.01 24-Apr-2013

 --------------------
 # opt b3lyp/6-31g(d)
 --------------------

 ------------------------
 Glo_A_ch2_GS_b3lyp_631Gd
 ------------------------
 Symbolic Z-matrix:
 Charge =  0 Multiplicity = 1

 SCF Done:  E(RB3LYP) =  -687.123094534     A.U. after   13 cycles
 SCF Done:  E(RB3LYP) =  -687.124592486     A.U. after   13 cycles
 SCF Done:  E(RB3LYP) =  -687.128556266     A.U. after   12 cycles
 SCF Done:  E(RB3LYP) =  -687.130204582     A.U. after   12 cycles
 SCF Done:  E(RB3LYP) =  -687.131791823     A.U. after   12 cycles
 SCF Done:  E(RB3LYP) =  -687.134427640     A.U. after   12 cycles
 SCF Done:  E(RB3LYP) =  -687.136442465     A.U. after   12 cycles
 SCF Done:  E(RB3LYP) =  -687.136726195     A.U. after   11 cycles
 SCF Done:  E(RB3LYP) =  -687.136844749     A.U. after   11 cycles
 SCF Done:  E(RB3LYP) =  -687.136945796     A.U. after   11 cycles
 SCF Done:  E(RB3LYP) =  -687.140131336     A.U. after   12 cycles
 SCF Done:  E(RB3LYP) =  -687.139741440     A.U. after   12 cycles
 SCF Done:  E(RB3LYP) =  -687.140660297     A.U. after    9 cycles
 SCF Done:  E(RB3LYP) =  -687.140891513     A.U. after   11 cycles
 SCF Done:  E(RB3LYP) =  -687.140928281     A.U. after   11 cycles
 SCF Done:  E(RB3LYP) =  -687.140948635     A.U. after   10 cycles
 SCF Done:  E(RB3LYP) =  -687.140954059     A.U. after   10 cycles
 SCF Done:  E(RB3LYP) =  -687.140951543     A.U. after   10 cycles
 SCF Done:  E(RB3LYP) =  -687.140958201     A.U. after    8 cycles
 SCF Done:  E(RB3LYP) =  -687.140957839     A.U. after    7 cycles
 Optimization completed.
    -- Stationary point found.

                         Standard orientation:
 ---------------------------------------------------------------------
 Center     Atomic      Atomic             Coordinates (Angstroms)
 Number     Number       Type             X           Y           Z
 ---------------------------------------------------------------------
      1          6           0        0.933637    1.253514   -0.590943
      2          8           0        0.147381    0.556340   -1.510943
      3          6           0        1.554501    0.387493    0.521568
      4          6           0        0.482089   -0.517050    1.152179
      5          6           0       -0.234488   -1.337102    0.058701
      6          6           0       -0.823936   -0.420309   -1.027336
      7          1           0        1.965378    1.058219    1.288766
      8          1           0       -1.067208   -1.877051    0.514612
      9          1           0       -0.976669   -1.056430   -1.902160
     10          1           0        0.966769   -1.209761    1.846723
     11          8           0        2.573672   -0.460243   -0.005847
     12          8           0       -0.452778    0.270451    1.902959
     13          8           0        0.621132   -2.326228   -0.489082
     14          1           0       -0.437686    1.177927    1.541230
     15          1           0        3.235649    0.089394   -0.454701
     16          1           0        1.462110   -1.887623   -0.710032
     17          6           0       -2.175154    0.268831   -0.644851
     18          8           0       -2.849055   -0.323588    0.447203
     19          1           0       -2.860942    0.201814   -1.494942
     20          1           0       -1.988287    1.335873   -0.467907
     21          1           0       -2.276501   -0.178632    1.226490
     22          8           0        0.223875    2.288240    0.101109
     23          1           0       -0.281829    2.786119   -0.562432
     24          1           0        1.725504    1.708095   -1.204758
 ---------------------------------------------------------------------

 The electronic state is 1-A.
 Alpha  occ. eigenvalues --  -19.19101 -19.18790 -19.17485 -19.16376 -19.13187
 Alpha  occ. eigenvalues --  -19.13113 -10.31297 -10.26545 -10.25039 -10.23966
 Alpha  occ. eigenvalues --  -10.23260 -10.23015  -1.09428  -1.05847  -1.03520
 Alpha  occ. eigenvalues --   -1.02824  -1.00625  -1.00520  -0.78438  -0.77527
 Alpha  occ. eigenvalues --   -0.69529  -0.66510  -0.64240  -0.58329  -0.55910
 Alpha  occ. eigenvalues --   -0.54764  -0.52748  -0.51206  -0.49844  -0.48802
 Alpha  occ. eigenvalues --   -0.46759  -0.45207  -0.43591  -0.43375  -0.42460
 Alpha  occ. eigenvalues --   -0.40284  -0.39445  -0.38593  -0.36494  -0.36323
 Alpha  occ. eigenvalues --   -0.33564  -0.32293  -0.31110  -0.30326  -0.29652
 Alpha  occ. eigenvalues --   -0.28889  -0.26017  -0.24567
 Alpha virt. eigenvalues --    0.02994   0.04776   0.08070   0.09441   0.11526
 Alpha virt. eigenvalues --    0.11804   0.12716   0.13572   0.15618   0.16394
 Alpha virt. eigenvalues --    0.17198   0.18289   0.18916   0.20798   0.21637

 Mulliken charges:
               1
     1  C    0.305698
     2  O   -0.500275
     3  C    0.062229
     4  C    0.106067
     5  C    0.090479
     6  C    0.077866
     7  H    0.157068
     8  H    0.167046
     9  H    0.166677
    10  H    0.166731
    11  O   -0.631982
    12  O   -0.669376
    13  O   -0.648941
    14  H    0.434432
    15  H    0.406742
    16  H    0.416302
    17  C   -0.050401
    18  O   -0.630325
    19  H    0.150665
    20  H    0.103122
    21  H    0.414937
    22  O   -0.634786
    23  H    0.410890
    24  H    0.129136
 Sum of Mulliken charges =   0.00000

 Dipole moment (field-independent basis, Debye):
    X=              3.1546    Y=              4.1053    Z=             -1.3934  Tot=              5.3616
 Quadrupole moment (field-independent basis, Debye-Ang):
   XX=            -69.4560   YY=            -72.1245   ZZ=            -72.3814
   XY=              1.0808   XZ=              0.7237   YZ=             -3.0713

 Normal termination of Gaussian 09 at Sat Jan  7 15:09:54 2017.
