 Gaussian 09, Revision E.01,
 Gaussian 09:  ES64L-G09RevE.01 30-Nov-2015

 ----------------------------------------------------------------------
 # opt=(calcfc,ts,noeigentest,maxcycle=1000,cartesian) b3lyp 6-31g(d) f
 req
 ----------------------------------------------------------------------

 -------------------------------------------
 ./1/glo_2w_alpha_boat1_b3lyp_631Gd_iopt.out
 -------------------------------------------
 Symbolic Z-matrix:
 Charge =  0 Multiplicity = 1

 SCF Done:  E(RB3LYP) =  -839.983042334     A.U. after   14 cycles
 Optimization completed.
    -- Stationary point found.
 Normal termination of Gaussian 09 at Tue Jan 31 07:15:16 2017.

 --------------------------------------------------------------------
 #N Geom=AllCheck Guess=TCheck SCRF=Check GenChk RB3LYP/6-31G(d) Freq
 --------------------------------------------------------------------

 Structure from the checkpoint file:  "/scratch/10501392.yak.local/Gau-19162.chk"
 -------------------------------------------
 ./1/glo_2w_alpha_boat1_b3lyp_631Gd_iopt.out
 -------------------------------------------
 Charge =  0 Multiplicity = 1

                         Standard orientation:
 ---------------------------------------------------------------------
 Center     Atomic      Atomic             Coordinates (Angstroms)
 Number     Number       Type             X           Y           Z
 ---------------------------------------------------------------------
      1          1           0       -1.240272   -1.879588   -0.137690
      2          6           0       -1.141801   -0.806318   -0.343000
      3          6           0        0.043943    1.146200    0.857930
      4          6           0        0.669372    0.507309   -1.506100
      5          6           0        0.131733    1.621760   -0.588580
      6          8           0       -0.099190   -0.720550   -1.312930
      7          6           0       -0.824809   -0.118399    1.003410
      8          1           0       -0.882406    1.885411   -0.928960
      9          1           0       -1.775919    0.167493    1.464870
     10          6           0       -2.498330   -0.390196   -0.931600
     11          1           0       -2.599331   -0.874686   -1.912840
     12          1           0       -2.564118    0.696684   -1.080140
     13          1           0        1.059412    0.907018    1.189510
     14          8           0       -3.485481   -0.842504   -0.008870
     15          1           0       -4.354570   -0.559533   -0.329550
     16          8           0        0.983465    2.740278   -0.697460
     17          1           0        0.701386    3.343079    0.011860
     18          8           0       -0.462406    2.253061    1.611660
     19          1           0       -0.188826    2.139190    2.534590
     20          8           0       -0.114821   -1.016890    1.888930
     21          1           0       -0.766682   -1.605859    2.300590
     22          1           0        0.523182    0.795489   -2.551010
     23          8           0        2.010551    0.236197   -1.376850
     24          1           0        2.261571    0.038036   -0.441050
     25          8           0        2.787949   -0.877815    1.055970
     26          1           0        2.637468   -1.722174    0.569000
     27          1           0        2.082959   -0.903644    1.724590
     28          8           0        1.481656   -2.913153   -0.271460
     29          1           0        0.841876   -2.800831    0.450160
     30          1           0        1.169827   -2.257212   -0.928230
 ---------------------------------------------------------------------

 SCF Done:  E(RB3LYP) =  -839.983042334     A.U. after    1 cycles

 The electronic state is 1-A.
 Alpha  occ. eigenvalues --  -19.18833 -19.17354 -19.17069 -19.16789 -19.14624
 Alpha  occ. eigenvalues --  -19.14433 -19.13388 -19.13338 -10.28763 -10.26166
 Alpha  occ. eigenvalues --  -10.26039 -10.25399 -10.25201 -10.24517  -1.07077
 Alpha  occ. eigenvalues --   -1.05301  -1.04652  -1.04105  -1.01869  -1.00636
 Alpha  occ. eigenvalues --   -0.99940  -0.98533  -0.80011  -0.77264  -0.70774
 Alpha  occ. eigenvalues --   -0.65951  -0.63819  -0.57685  -0.57563  -0.54390
 Alpha  occ. eigenvalues --   -0.53461  -0.52163  -0.51508  -0.50705  -0.49561
 Alpha  occ. eigenvalues --   -0.48646  -0.47541  -0.46897  -0.45147  -0.44823
 Alpha  occ. eigenvalues --   -0.42766  -0.41212  -0.38999  -0.38353  -0.37896
 Alpha  occ. eigenvalues --   -0.36893  -0.36354  -0.35504  -0.34803  -0.32329
 Alpha  occ. eigenvalues --   -0.31776  -0.30224  -0.29827  -0.29184  -0.28680
 Alpha  occ. eigenvalues --   -0.28393  -0.27064  -0.26452
 Alpha virt. eigenvalues --    0.03244   0.04626   0.04912   0.06949   0.08102
 Alpha virt. eigenvalues --    0.09992   0.10591   0.11755   0.12309   0.14648
 Alpha virt. eigenvalues --    0.15373   0.15912   0.17801   0.18097   0.19027

 Mulliken charges:
               1
     1  H    0.138389
     2  C    0.119362
     3  C    0.072918
     4  C    0.340476
     5  C    0.087177
     6  O   -0.542371
     7  C    0.081825
     8  H    0.120967
     9  H    0.170664
    10  C   -0.071633
    11  H    0.150399
    12  H    0.140813
    13  H    0.157857
    14  O   -0.625654
    15  H    0.405208
    16  O   -0.625942
    17  H    0.405647
    18  O   -0.649540
    19  H    0.405807
    20  O   -0.658844
    21  H    0.408936
    22  H    0.149172
    23  O   -0.625586
    24  H    0.437609
    25  O   -0.828083
    26  H    0.421891
    27  H    0.403159
    28  O   -0.809569
    29  H    0.388147
    30  H    0.430799
 Sum of Mulliken charges =  -0.00000

 Dipole moment (field-independent basis, Debye):
    X=             -6.8575    Y=              0.5534    Z=              3.2192  Tot=              7.5958
 Quadrupole moment (field-independent basis, Debye-Ang):
   XX=            -88.1148   YY=            -88.6632   ZZ=            -76.4952
   XY=              2.6786   XZ=              6.3763   YZ=             -0.2839

  Exact polarizability:  98.770   2.357  92.771  -0.960  -1.847  90.371
 Approx polarizability: 133.386   1.394 126.650  -4.274  -3.707 128.225

 ******    1 imaginary frequencies (negative Signs) ******

                      1                      2                      3
                      A                      A                      A
 Frequencies --    -71.8830                49.8183                72.1818
 Red. masses --      4.5224                 6.5734                 6.1972
 Frc consts  --      0.0138                 0.0096                 0.0190
 IR Inten    --     10.2337                 0.7226                 3.2309

                      4                      5                      6
                      A                      A                      A
 Frequencies --     80.8230                97.7512               122.4026
 Red. masses --      5.8295                 5.0096                 4.6101
 Frc consts  --      0.0224                 0.0282                 0.0407
 IR Inten    --      2.2948                 8.6564                 3.9297

                      7                      8                      9
                      A                      A                      A
 Frequencies --    126.6113               164.6025               195.2943
 Red. masses --      6.3272                 5.7252                 2.7450
 Frc consts  --      0.0598                 0.0914                 0.0617
 IR Inten    --      0.3976                 5.1017                12.2539

                     10                     11                     12
                      A                      A                      A
 Frequencies --    223.5307               242.3025               256.4330
 Red. masses --      7.1914                 2.0000                 5.6055
 Frc consts  --      0.2117                 0.0692                 0.2172
 IR Inten    --     17.2169                39.3596                11.0632

                     13                     14                     15
                      A                      A                      A
 Frequencies --    259.9654               264.8435               275.1269
 Red. masses --      2.9393                 3.1122                 2.5317
 Frc consts  --      0.1170                 0.1286                 0.1129
 IR Inten    --     20.0635                26.2918                39.6804

                     16                     17                     18
                      A                      A                      A
 Frequencies --    302.2673               305.8439               308.0036
 Red. masses --      1.4727                 1.3102                 3.0137
 Frc consts  --      0.0793                 0.0722                 0.1684
 IR Inten    --     79.0494                56.6713                10.5683

                     19                     20                     21
                      A                      A                      A
 Frequencies --    341.1681               350.5327               387.2663
 Red. masses --      3.1919                 1.2631                 1.1732
 Frc consts  --      0.2189                 0.0914                 0.1037
 IR Inten    --     25.0019                65.4320                24.3807

                     22                     23                     24
                      A                      A                      A
 Frequencies --    406.9136               449.8724               454.5373
 Red. masses --      3.1795                 1.5646                 2.4147
 Frc consts  --      0.3102                 0.1866                 0.2939
 IR Inten    --     17.9610                82.2063                30.9531

                     25                     26                     27
                      A                      A                      A
 Frequencies --    471.5701               502.5690               511.4723
 Red. masses --      4.1782                 1.1492                 3.7079
 Frc consts  --      0.5474                 0.1710                 0.5715
 IR Inten    --      8.2419                43.2675                 9.3201

                     28                     29                     30
                      A                      A                      A
 Frequencies --    551.4941               563.4194               606.1684
 Red. masses --      4.1164                 3.3993                 1.1599
 Frc consts  --      0.7377                 0.6358                 0.2511
 IR Inten    --     52.8622                30.8005               115.2751

                     31                     32                     33
                      A                      A                      A
 Frequencies --    623.9948               699.2256               721.0290
 Red. masses --      1.1647                 2.3350                 1.3200
 Frc consts  --      0.2672                 0.6726                 0.4043
 IR Inten    --    159.4365                78.0242               247.6649

                     34                     35                     36
                      A                      A                      A
 Frequencies --    774.1172               844.2647               905.5043
 Red. masses --      4.0179                 3.2610                 3.2450
 Frc consts  --      1.4186                 1.3695                 1.5677
 IR Inten    --     62.7736                48.5009                41.9841

                     37                     38                     39
                      A                      A                      A
 Frequencies --    919.2008               988.0487               998.0288
 Red. masses --      3.3296                 1.1592                 2.7517
 Frc consts  --      1.6576                 0.6668                 1.6149
 IR Inten    --     78.8865               106.8806               106.2852

                     40                     41                     42
                      A                      A                      A
 Frequencies --   1022.1540              1056.7798              1072.4861
 Red. masses --      3.2783                 2.5111                 3.1433
 Frc consts  --      2.0181                 1.6523                 2.1302
 IR Inten    --     51.4333                66.6827                39.0957

                     43                     44                     45
                      A                      A                      A
 Frequencies --   1082.2755              1087.6078              1113.5669
 Red. masses --      4.2131                 4.1543                 2.3997
 Frc consts  --      2.9076                 2.8953                 1.7533
 IR Inten    --     66.3085                50.0412               113.0227

                     46                     47                     48
                      A                      A                      A
 Frequencies --   1142.9998              1156.1889              1191.8964
 Red. masses --      2.5842                 4.9850                 2.5003
 Frc consts  --      1.9892                 3.9262                 2.0928
 IR Inten    --    102.7236                41.8804               102.4674

                     49                     50                     51
                      A                      A                      A
 Frequencies --   1232.4873              1241.4955              1252.1301
 Red. masses --      1.2144                 1.1650                 1.1829
 Frc consts  --      1.0869                 1.0580                 1.0927
 IR Inten    --     20.2316                 3.0348                63.8338

                     52                     53                     54
                      A                      A                      A
 Frequencies --   1256.9952              1293.9194              1324.0167
 Red. masses --      1.2008                 1.2351                 1.4215
 Frc consts  --      1.1178                 1.2183                 1.4682
 IR Inten    --     33.2441                21.8079                17.4855

                     55                     56                     57
                      A                      A                      A
 Frequencies --   1345.7906              1354.8644              1368.5416
 Red. masses --      1.3440                 1.2313                 1.2492
 Frc consts  --      1.4342                 1.3317                 1.3784
 IR Inten    --     19.8718                26.7825                 9.9062

                     58                     59                     60
                      A                      A                      A
 Frequencies --   1392.4265              1404.1671              1404.8151
 Red. masses --      1.3912                 1.2662                 1.2803
 Frc consts  --      1.5892                 1.4709                 1.4887
 IR Inten    --     15.5378                 9.4904                15.3457

                     61                     62                     63
                      A                      A                      A
 Frequencies --   1451.5669              1453.4838              1466.4889
 Red. masses --      1.4348                 1.4476                 1.4196
 Frc consts  --      1.7812                 1.8019                 1.7988
 IR Inten    --     11.1124                24.3463                 1.7909

                     64                     65                     66
                      A                      A                      A
 Frequencies --   1473.1100              1501.6033              1552.3996
 Red. masses --      1.4398                 1.1992                 1.0866
 Frc consts  --      1.8408                 1.5932                 1.5429
 IR Inten    --     12.7284                81.1961                 6.5847

                     67                     68                     69
                      A                      A                      A
 Frequencies --   1742.6103              1783.7589              2996.5756
 Red. masses --      1.0822                 1.0730                 1.0802
 Frc consts  --      1.9362                 2.0115                 5.7147
 IR Inten    --    242.2338               105.7361                54.8166

                     70                     71                     72
                      A                      A                      A
 Frequencies --   3025.8725              3048.1180              3068.4377
 Red. masses --      1.0569                 1.0888                 1.1047
 Frc consts  --      5.7014                 5.9604                 6.1281
 IR Inten    --     37.9601                13.7977                61.9992

                     73                     74                     75
                      A                      A                      A
 Frequencies --   3084.0371              3093.1801              3100.5235
 Red. masses --      1.0859                 1.0845                 1.0882
 Frc consts  --      6.0854                 6.1135                 6.1637
 IR Inten    --      5.8742                16.7366                63.7762

                     76                     77                     78
                      A                      A                      A
 Frequencies --   3399.8993              3499.6661              3627.6758
 Red. masses --      1.0682                 1.0600                 1.0532
 Frc consts  --      7.2752                 7.6489                 8.1664
 IR Inten    --    331.0731               332.2389               201.6372

                     79                     80                     81
                      A                      A                      A
 Frequencies --   3712.8583              3745.9120              3753.0727
 Red. masses --      1.0652                 1.0668                 1.0677
 Frc consts  --      8.6520                 8.8192                 8.8607
 IR Inten    --     37.5238                35.7962                54.6072

                     82                     83                     84
                      A                      A                      A
 Frequencies --   3757.3257              3765.6167              3775.7704
 Red. masses --      1.0667                 1.0667                 1.0720
 Frc consts  --      8.8729                 8.9120                 9.0045
 IR Inten    --     32.2098                28.9080                38.2582

 - Thermochemistry -
 -------------------
 Temperature   298.150 Kelvin.  Pressure   1.00000 Atm.
 Atom     1 has atomic number  1 and mass   1.00783

 Molecular mass:   216.08452 amu.
 Principal axes and moments of inertia in atomic units:
                           1         2         3
     Eigenvalues --  2755.665913146.394403905.23378
           X            0.99916  -0.03101   0.02661
           Y            0.03116   0.99950  -0.00541
           Z           -0.02643   0.00624   0.99963
 This molecule is an asymmetric top.
 Rotational symmetry number  1.
 Warning -- assumption of classical behavior for rotation
           may cause significant error
 Rotational temperatures (Kelvin)      0.03143     0.02753     0.02218
 Rotational constants (GHZ):           0.65492     0.57359     0.46213
    1 imaginary frequencies ignored.
 Zero-point vibrational energy     652535.2 (Joules/Mol)
                                  155.95966 (Kcal/Mol)
 Warning -- explicit consideration of  29 degrees of freedom as
           vibrations may cause significant error
 Vibrational temperatures:     71.68   103.85   116.29   140.64   176.11
          (Kelvin)            182.17   236.83   280.98   321.61   348.62
                              368.95   374.03   381.05   395.85   434.89
                              440.04   443.15   490.86   504.34   557.19
                              585.46   647.27   653.98   678.48   723.08
                              735.89   793.48   810.63   872.14   897.79
                             1006.03  1037.40  1113.78  1214.71  1302.82
                             1322.52  1421.58  1435.94  1470.65  1520.47
                             1543.07  1557.15  1564.82  1602.17  1644.52
                             1663.50  1714.87  1773.27  1786.23  1801.53
                             1808.53  1861.66  1904.96  1936.29  1949.35
                             1969.02  2003.39  2020.28  2021.21  2088.48
                             2091.24  2109.95  2119.47  2160.47  2233.55
                             2507.22  2566.43  4311.40  4353.55  4385.56
                             4414.79  4437.24  4450.39  4460.96  4891.69
                             5035.23  5219.41  5341.97  5389.53  5399.83
                             5405.95  5417.88  5432.48

 Zero-point correction=                           0.248538 (Hartree/Particle)
 Thermal correction to Energy=                    0.265375
 Thermal correction to Enthalpy=                  0.266319
 Thermal correction to Gibbs Free Energy=         0.205704
 Sum of electronic and zero-point Energies=           -839.734505
 Sum of electronic and thermal Energies=              -839.717667
 Sum of electronic and thermal Enthalpies=            -839.716723
 Sum of electronic and thermal Free Energies=         -839.777338

                     E (Thermal)             CV                S
                      KCal/Mol        Cal/Mol-Kelvin    Cal/Mol-Kelvin
 Total                  166.526             63.170            127.576
 Electronic               0.000              0.000              0.000
 Translational            0.889              2.981             42.015
 Rotational               0.889              2.981             31.893
 Vibrational            164.748             57.208             53.668
 Vibration     1          0.595              1.978              4.825
 Vibration     2          0.598              1.967              4.093
 Vibration     3          0.600              1.962              3.871
 Vibration     4          0.603              1.951              3.499
 Vibration     5          0.610              1.930              3.062
 Vibration     6          0.611              1.927              2.997
 Vibration     7          0.623              1.886              2.496
 Vibration     8          0.636              1.846              2.177
 Vibration     9          0.649              1.805              1.930
 Vibration    10          0.658              1.775              1.786
 Vibration    11          0.666              1.752              1.686
 Vibration    12          0.668              1.746              1.662
 Vibration    13          0.671              1.737              1.630
 Vibration    14          0.677              1.719              1.564
 Vibration    15          0.694              1.669              1.404
 Vibration    16          0.696              1.663              1.385
 Vibration    17          0.698              1.658              1.373
 Vibration    18          0.721              1.593              1.207
 Vibration    19          0.727              1.574              1.164
 Vibration    20          0.756              1.497              1.011
 Vibration    21          0.772              1.455              0.938
 Vibration    22          0.809              1.361              0.796
 Vibration    23          0.813              1.351              0.782
 Vibration    24          0.829              1.313              0.733
 Vibration    25          0.858              1.244              0.652
 Vibration    26          0.867              1.225              0.630
 Vibration    27          0.907              1.136              0.541
 Vibration    28          0.919              1.110              0.517
 Vibration    29          0.965              1.019              0.439

 Optimization completed.
    -- Stationary point found.
 Normal termination of Gaussian 09 at Tue Jan 31 07:33:24 2017.
