 Gaussian 09, Revision E.01,
 Gaussian 09:  ES64L-G09RevE.01 30-Nov-2015

 ----------------------------------------------------------------------
 # opt=(calcfc,ts,noeigentest,maxcycle=1000,cartesian) b3lyp 6-31g(d) f
 req
 ----------------------------------------------------------------------

 ------------------------------------------
 ./1/glo_1w_beta_boat1_b3lyp_631Gd_iopt.out
 ------------------------------------------
 Symbolic Z-matrix:
 Charge =  0 Multiplicity = 1

 SCF Done:  E(RB3LYP) =  -839.979457693     A.U. after   13 cycles
 Optimization completed.
    -- Stationary point found.
 Normal termination of Gaussian 09 at Tue Jan 31 07:15:19 2017.

 --------------------------------------------------------------------
 #N Geom=AllCheck Guess=TCheck SCRF=Check GenChk RB3LYP/6-31G(d) Freq
 --------------------------------------------------------------------

 Structure from the checkpoint file:  "/scratch/10501394.yak.local/Gau-19249.chk"
 ------------------------------------------
 ./1/glo_1w_beta_boat1_b3lyp_631Gd_iopt.out
 ------------------------------------------
 Charge =  0 Multiplicity = 1

                         Standard orientation:
 ---------------------------------------------------------------------
 Center     Atomic      Atomic             Coordinates (Angstroms)
 Number     Number       Type             X           Y           Z
 ---------------------------------------------------------------------
      1          1           0       -1.932191    1.832739    0.434150
      2          6           0       -1.116501    1.184480    0.083570
      3          6           0        1.230979    0.411180    0.734830
      4          6           0       -0.666531   -1.264080    0.265820
      5          6           0        0.791849   -0.873470    0.006270
      6          8           0       -1.591211   -0.140711    0.285950
      7          6           0        0.118469    1.460560    0.947010
      8          1           0       -0.751770   -1.719800    1.260690
      9          1           0        0.879689   -0.697680   -1.075150
     10          1           0        0.502199    2.456260    0.674990
     11          6           0       -0.925211    1.534140   -1.399660
     12          1           0       -1.772151    1.111829   -1.959980
     13          1           0       -0.001201    1.099900   -1.801440
     14          8           0       -1.046960   -2.141080   -0.739220
     15          1           0       -1.952240   -2.447671   -0.513470
     16          1           0        1.591389    0.119610    1.727820
     17          8           0       -0.895621    2.957870   -1.472320
     18          1           0       -0.635211    3.207360   -2.371220
     19          8           0        1.588910   -1.970600    0.395890
     20          1           0        2.405530   -1.940930   -0.149870
     21          8           0        2.318099    0.956500   -0.046420
     22          1           0        2.693469    1.702890    0.447640
     23          8           0       -0.200151    1.396100    2.335030
     24          1           0       -1.013811    1.902910    2.484500
     25          8           0       -3.735850   -1.958351    0.010790
     26          1           0       -3.301181   -1.101211    0.194390
     27          1           0       -4.158390   -1.826231   -0.851940
     28          8           0        3.903679   -1.192220   -0.939490
     29          1           0        3.529869   -0.318520   -0.694140
     30          1           0        4.590519   -1.358369   -0.275720
 ---------------------------------------------------------------------

 SCF Done:  E(RB3LYP) =  -839.979457693     A.U. after    1 cycles

 The electronic state is 1-A.
 Alpha  occ. eigenvalues --  -19.18080 -19.16096 -19.15994 -19.15606 -19.14779
 Alpha  occ. eigenvalues --  -19.14757 -19.13011 -19.12053 -10.27805 -10.25127
 Alpha  occ. eigenvalues --  -10.24703 -10.24556 -10.24180 -10.23403  -1.06435
 Alpha  occ. eigenvalues --   -1.04780  -1.03158  -1.02807  -1.00843  -1.00530
 Alpha  occ. eigenvalues --   -0.99828  -0.98867  -0.78588  -0.76219  -0.69553
 Alpha  occ. eigenvalues --   -0.64796  -0.63335  -0.56250  -0.55812  -0.53424
 Alpha  occ. eigenvalues --   -0.53034  -0.52648  -0.52012  -0.50430  -0.49567
 Alpha  occ. eigenvalues --   -0.47401  -0.46225  -0.45591  -0.44300  -0.42184
 Alpha  occ. eigenvalues --   -0.41780  -0.40063  -0.38752  -0.38493  -0.37252
 Alpha  occ. eigenvalues --   -0.36995  -0.35789  -0.34452  -0.33728  -0.32696
 Alpha  occ. eigenvalues --   -0.30147  -0.29647  -0.29498  -0.28560  -0.28094
 Alpha  occ. eigenvalues --   -0.27078  -0.26596  -0.24884
 Alpha virt. eigenvalues --    0.04566   0.05360   0.06442   0.07151   0.08070
 Alpha virt. eigenvalues --    0.10102   0.10506   0.12350   0.14148   0.14388
 Alpha virt. eigenvalues --    0.15387   0.15946   0.17549   0.17855   0.18859

 Mulliken charges:
               1
     1  H    0.138217
     2  C    0.099926
     3  C    0.097633
     4  C    0.350377
     5  C    0.074326
     6  O   -0.545160
     7  C    0.116588
     8  H    0.146213
     9  H    0.149255
    10  H    0.135823
    11  C   -0.066393
    12  H    0.135923
    13  H    0.148907
    14  O   -0.636454
    15  H    0.414611
    16  H    0.168218
    17  O   -0.624938
    18  H    0.401598
    19  O   -0.667752
    20  H    0.421650
    21  O   -0.654613
    22  H    0.404919
    23  O   -0.637890
    24  H    0.395618
    25  O   -0.794442
    26  H    0.418696
    27  H    0.393530
    28  O   -0.801922
    29  H    0.424548
    30  H    0.392990
 Sum of Mulliken charges =  -0.00000

 Dipole moment (field-independent basis, Debye):
    X=              0.6080    Y=              5.1722    Z=             -0.7761  Tot=              5.2654
 Quadrupole moment (field-independent basis, Debye-Ang):
   XX=            -70.2762   YY=            -89.1142   ZZ=            -81.6817
   XY=              1.7076   XZ=             10.3596   YZ=             -1.3371

  Exact polarizability: 102.922  -0.840  97.868   0.625   0.164  84.428
 Approx polarizability: 129.213  -1.431 131.932  -2.720   0.816 121.963

 ******    1 imaginary frequencies (negative Signs) ******

                      1                      2                      3
                      A                      A                      A
 Frequencies --    -54.9814                34.8118                38.3028
 Red. masses --      5.7527                 5.5510                 5.5021
 Frc consts  --      0.0102                 0.0040                 0.0048
 IR Inten    --      1.0046                 5.4384                 3.2389

                      4                      5                      6
                      A                      A                      A
 Frequencies --     56.8288                85.8391                87.4119
 Red. masses --      5.6014                 5.9114                 4.0435
 Frc consts  --      0.0107                 0.0257                 0.0182
 IR Inten    --      2.5874                 1.1047                 5.1661

                      7                      8                      9
                      A                      A                      A
 Frequencies --    125.7961               155.5606               178.7255
 Red. masses --      4.5759                 3.5452                 5.7209
 Frc consts  --      0.0427                 0.0505                 0.1077
 IR Inten    --      8.3155                 7.6010                 0.2729

                     10                     11                     12
                      A                      A                      A
 Frequencies --    186.2736               201.8438               240.9094
 Red. masses --      3.8032                 5.3106                 1.7933
 Frc consts  --      0.0778                 0.1275                 0.0613
 IR Inten    --      1.7810                33.2587                90.4001

                     13                     14                     15
                      A                      A                      A
 Frequencies --    242.6226               257.0585               279.0645
 Red. masses --      1.6421                 1.0767                 1.7468
 Frc consts  --      0.0570                 0.0419                 0.0801
 IR Inten    --     35.2306               168.3963                35.3141

                     16                     17                     18
                      A                      A                      A
 Frequencies --    289.6345               301.3561               319.5430
 Red. masses --      2.0190                 1.5034                 2.7160
 Frc consts  --      0.0998                 0.0804                 0.1634
 IR Inten    --     68.2456               100.6198                18.2116

                     19                     20                     21
                      A                      A                      A
 Frequencies --    323.7151               337.8529               353.8618
 Red. masses --      1.3658                 1.7245                 2.0175
 Frc consts  --      0.0843                 0.1160                 0.1488
 IR Inten    --     79.9115                29.4838                98.0449

                     22                     23                     24
                      A                      A                      A
 Frequencies --    400.0938               404.1667               426.4884
 Red. masses --      2.5719                 1.8872                 3.0366
 Frc consts  --      0.2426                 0.1816                 0.3254
 IR Inten    --     29.8414                84.9900                32.1516

                     25                     26                     27
                      A                      A                      A
 Frequencies --    451.7263               483.1187               511.2644
 Red. masses --      4.8920                 5.0637                 3.5059
 Frc consts  --      0.5881                 0.6964                 0.5399
 IR Inten    --      2.7241                 5.6299                32.0256

                     28                     29                     30
                      A                      A                      A
 Frequencies --    544.1978               570.9424               601.6941
 Red. masses --      5.3668                 4.9521                 2.8977
 Frc consts  --      0.9364                 0.9511                 0.6181
 IR Inten    --     12.5482                12.2891                 5.2774

                     31                     32                     33
                      A                      A                      A
 Frequencies --    623.7669               640.6071               796.0029
 Red. masses --      1.1075                 1.1548                 2.4835
 Frc consts  --      0.2539                 0.2792                 0.9271
 IR Inten    --    250.8420               109.9715                31.3271

                     34                     35                     36
                      A                      A                      A
 Frequencies --    807.1659               829.5243               856.7987
 Red. masses --      1.2355                 1.1708                 2.8363
 Frc consts  --      0.4743                 0.4747                 1.2268
 IR Inten    --    137.1211               183.0189                11.6286

                     37                     38                     39
                      A                      A                      A
 Frequencies --    928.5154               989.8400              1014.9942
 Red. masses --      4.2455                 3.0524                 3.3704
 Frc consts  --      2.1565                 1.7621                 2.0458
 IR Inten    --     84.5546                55.3318               116.6492

                     40                     41                     42
                      A                      A                      A
 Frequencies --   1042.6974              1048.8063              1077.6226
 Red. masses --      3.5043                 2.9324                 5.7226
 Frc consts  --      2.2448                 1.9005                 3.9154
 IR Inten    --    130.5123                15.9608               137.5436

                     43                     44                     45
                      A                      A                      A
 Frequencies --   1089.3850              1099.0234              1112.9378
 Red. masses --      2.5571                 3.8862                 2.6727
 Frc consts  --      1.7879                 2.7656                 1.9505
 IR Inten    --      6.1825                 6.7835                82.2184

                     46                     47                     48
                      A                      A                      A
 Frequencies --   1126.4889              1138.2837              1163.8627
 Red. masses --      2.8433                 3.3964                 4.0169
 Frc consts  --      2.1259                 2.5928                 3.2058
 IR Inten    --    135.4019                46.2462                46.9894

                     49                     50                     51
                      A                      A                      A
 Frequencies --   1225.1590              1242.6554              1250.1889
 Red. masses --      1.1828                 1.1546                 1.1167
 Frc consts  --      1.0461                 1.0505                 1.0283
 IR Inten    --     31.9310                 6.5759                71.6922

                     52                     53                     54
                      A                      A                      A
 Frequencies --   1267.8655              1294.6169              1327.1614
 Red. masses --      1.1968                 1.1590                 1.3407
 Frc consts  --      1.1335                 1.1445                 1.3913
 IR Inten    --     27.3255                 7.6638                35.4494

                     55                     56                     57
                      A                      A                      A
 Frequencies --   1353.6098              1361.6263              1378.7469
 Red. masses --      1.2300                 1.2193                 1.2251
 Frc consts  --      1.3278                 1.3319                 1.3722
 IR Inten    --      5.7755                21.0981                 9.9254

                     58                     59                     60
                      A                      A                      A
 Frequencies --   1391.8774              1392.9198              1401.2950
 Red. masses --      1.3135                 1.2344                 1.2924
 Frc consts  --      1.4993                 1.4111                 1.4952
 IR Inten    --     14.1644                80.6279                20.7945

                     61                     62                     63
                      A                      A                      A
 Frequencies --   1432.2819              1459.1388              1470.9175
 Red. masses --      1.5763                 1.4774                 1.4471
 Frc consts  --      1.9053                 1.8533                 1.8447
 IR Inten    --     13.1024                 6.6605                 5.3441

                     64                     65                     66
                      A                      A                      A
 Frequencies --   1506.4630              1547.6878              1549.1922
 Red. masses --      1.2258                 1.1029                 1.4540
 Frc consts  --      1.6390                 1.5565                 2.0559
 IR Inten    --     18.9879                 5.8283                31.5096

                     67                     68                     69
                      A                      A                      A
 Frequencies --   1727.7026              1728.6493              3008.4350
 Red. masses --      1.0754                 1.0771                 1.0838
 Frc consts  --      1.8912                 1.8963                 5.7793
 IR Inten    --     55.6239                54.3855                38.0171

                     70                     71                     72
                      A                      A                      A
 Frequencies --   3022.0094              3029.6889              3033.2965
 Red. masses --      1.0610                 1.0857                 1.0828
 Frc consts  --      5.7089                 5.8714                 5.8698
 IR Inten    --     35.0798                31.2950                29.4959

                     73                     74                     75
                      A                      A                      A
 Frequencies --   3056.1256              3073.5917              3078.1086
 Red. masses --      1.0864                 1.0927                 1.0953
 Frc consts  --      5.9781                 6.0821                 6.1146
 IR Inten    --     50.6042                38.3821                36.2963

                     76                     77                     78
                      A                      A                      A
 Frequencies --   3501.9939              3533.4765              3577.3008
 Red. masses --      1.0654                 1.0653                 1.0579
 Frc consts  --      7.6980                 7.8364                 7.9765
 IR Inten    --    248.4154               207.1124               607.8294

                     79                     80                     81
                      A                      A                      A
 Frequencies --   3622.0515              3738.3443              3741.6593
 Red. masses --      1.0545                 1.0662                 1.0660
 Frc consts  --      8.1511                 8.7791                 8.7929
 IR Inten    --    334.1204                21.9135                12.3017

                     82                     83                     84
                      A                      A                      A
 Frequencies --   3764.7564              3794.8265              3797.4959
 Red. masses --      1.0667                 1.0713                 1.0734
 Frc consts  --      8.9077                 9.0897                 9.1205
 IR Inten    --     24.2839                78.2771                73.9912

 - Thermochemistry -
 -------------------
 Temperature   298.150 Kelvin.  Pressure   1.00000 Atm.
 Atom     1 has atomic number  1 and mass   1.00783

 Molecular mass:   216.08452 amu.
 Principal axes and moments of inertia in atomic units:
                           1         2         3
     Eigenvalues --  2759.816453679.924854886.38707
           X            0.99997   0.00470   0.00638
           Y           -0.00467   0.99998  -0.00458
           Z           -0.00640   0.00455   0.99997
 This molecule is an asymmetric top.
 Rotational symmetry number  1.
 Warning -- assumption of classical behavior for rotation
           may cause significant error
 Rotational temperatures (Kelvin)      0.03138     0.02354     0.01773
 Rotational constants (GHZ):           0.65394     0.49043     0.36934
    1 imaginary frequencies ignored.
 Zero-point vibrational energy     649332.7 (Joules/Mol)
                                  155.19423 (Kcal/Mol)
 Warning -- explicit consideration of  29 degrees of freedom as
           vibrations may cause significant error
 Vibrational temperatures:     50.09    55.11    81.76   123.50   125.77
          (Kelvin)            180.99   223.82   257.15   268.01   290.41
                              346.61   349.08   369.85   401.51   416.72
                              433.58   459.75   465.75   486.09   509.13
                              575.64   581.50   613.62   649.93   695.10
                              735.59   782.98   821.46   865.70   897.46
                              921.69  1145.27  1161.33  1193.50  1232.74
                             1335.92  1424.16  1460.35  1500.21  1509.00
                             1550.46  1567.38  1581.25  1601.27  1620.76
                             1637.73  1674.54  1762.73  1787.90  1798.74
                             1824.17  1862.66  1909.49  1947.54  1959.07
                             1983.71  2002.60  2004.10  2016.15  2060.73
                             2099.37  2116.32  2167.46  2226.77  2228.94
                             2485.78  2487.14  4328.46  4347.99  4359.04
                             4364.23  4397.08  4422.21  4428.71  5038.58
                             5083.88  5146.93  5211.32  5378.64  5383.41
                             5416.64  5459.90  5463.74

 Zero-point correction=                           0.247318 (Hartree/Particle)
 Thermal correction to Energy=                    0.264793
 Thermal correction to Enthalpy=                  0.265738
 Thermal correction to Gibbs Free Energy=         0.202340
 Sum of electronic and zero-point Energies=           -839.732140
 Sum of electronic and thermal Energies=              -839.714664
 Sum of electronic and thermal Enthalpies=            -839.713720
 Sum of electronic and thermal Free Energies=         -839.777118

                     E (Thermal)             CV                S
                      KCal/Mol        Cal/Mol-Kelvin    Cal/Mol-Kelvin
 Total                  166.160             63.846            133.431
 Electronic               0.000              0.000              0.000
 Translational            0.889              2.981             42.015
 Rotational               0.889              2.981             32.273
 Vibrational            164.383             57.884             59.143
 Vibration     1          0.594              1.983              5.534
 Vibration     2          0.594              1.982              5.345
 Vibration     3          0.596              1.975              4.564
 Vibration     4          0.601              1.959              3.753
 Vibration     5          0.601              1.958              3.717
 Vibration     6          0.611              1.927              3.009
 Vibration     7          0.620              1.896              2.603
 Vibration     8          0.629              1.868              2.342
 Vibration     9          0.632              1.859              2.265
 Vibration    10          0.639              1.837              2.116
 Vibration    11          0.658              1.778              1.796
 Vibration    12          0.659              1.775              1.784
 Vibration    13          0.667              1.751              1.682
 Vibration    14          0.679              1.712              1.539
 Vibration    15          0.686              1.693              1.476
 Vibration    16          0.693              1.671              1.409
 Vibration    17          0.705              1.636              1.312
 Vibration    18          0.708              1.628              1.291
 Vibration    19          0.718              1.600              1.222
 Vibration    20          0.730              1.567              1.149
 Vibration    21          0.766              1.470              0.962
 Vibration    22          0.769              1.461              0.947
 Vibration    23          0.788              1.413              0.870
 Vibration    24          0.810              1.357              0.791
 Vibration    25          0.839              1.287              0.702
 Vibration    26          0.866              1.225              0.631
 Vibration    27          0.899              1.152              0.556
 Vibration    28          0.927              1.094              0.502
 Vibration    29          0.960              1.028              0.447

 Optimization completed.
    -- Stationary point found.
 Normal termination of Gaussian 09 at Tue Jan 31 07:32:12 2017.
