 Gaussian 09, Revision D.01,
 Gaussian 09:  AM64L-G09RevD.01 24-Apr-2013

 -----------------------------------------------------------------
 # opt=(TS, CalcFC, NoEigenTest, MaxCycle=500) Freq B3LYP/6-31G(d)
 -----------------------------------------------------------------

 -------------------------
 glo_2w_Beta_B3LYP_6-31G_d
 -------------------------
 Symbolic Z-matrix:
 Charge =  0 Multiplicity = 1

 SCF Done:  E(RB3LYP) =  -839.965324883     A.U. after   14 cycles
 SCF Done:  E(RB3LYP) =  -839.965324923     A.U. after    7 cycles
 Optimization completed.
    -- Stationary point found.
 Normal termination of Gaussian 09 at Sat Jun  4 20:44:57 2016.

 --------------------------------------------------------------------
 #N Geom=AllCheck Guess=TCheck SCRF=Check GenChk RB3LYP/6-31G(d) Freq
 --------------------------------------------------------------------

 Structure from the checkpoint file:  "/home/iawad/scratch/MAIN/PRO_Halides/direct/TsF/glo_2w_Beta/glo_2w_Beta_B3LYP_6-31G_d.chk"
 -------------------------
 glo_2w_Beta_B3LYP_6-31G_d
 -------------------------
 Charge =  0 Multiplicity = 1

                         Standard orientation:
 ---------------------------------------------------------------------
 Center     Atomic      Atomic             Coordinates (Angstroms)
 Number     Number       Type             X           Y           Z
 ---------------------------------------------------------------------
      1          6           0       -1.284576    0.927824   -0.075122
      2          8           0       -0.561912   -0.713282    0.379176
      3          8           0       -2.359023    1.026905    0.592868
      4          1           0       -3.315042    0.318895    0.124663
      5          1           0       -2.204257   -2.405369   -1.308004
      6          1           0       -4.688607   -0.647608    0.441472
      7          8           0       -4.045384   -0.486124   -0.267396
      8          1           0       -3.278805   -1.422371   -0.322896
      9          8           0       -2.336328   -2.189250   -0.371320
     10          1           0       -1.427969   -1.503888    0.001107
     11          6           0       -0.128416    1.839554    0.310295
     12          6           0        1.198806    1.405188   -0.309573
     13          6           0        1.703414    0.063433    0.204506
     14          6           0        0.714845   -1.059235   -0.133151
     15          1           0       -1.347654    0.712989   -1.154986
     16          1           0       -0.048540    1.836161    1.407103
     17          1           0        1.805924    0.122902    1.300505
     18          1           0        0.693176   -1.169881   -1.235015
     19          1           0        1.070252    1.329914   -1.403444
     20          8           0       -0.476722    3.129362   -0.174663
     21          8           0        2.133758    2.436049   -0.007219
     22          8           0        2.973142   -0.136270   -0.410137
     23          1           0        3.003294    2.093967   -0.276933
     24          1           0        0.352561    3.638697   -0.160634
     25          1           0        3.266132   -1.028807   -0.144603
     26          6           0        1.129217   -2.399210    0.498356
     27          8           0        2.443703   -2.815991    0.100304
     28          1           0        0.383951   -3.172992    0.269899
     29          1           0        1.166801   -2.282945    1.584908
     30          1           0        2.399165   -3.096178   -0.827903
 ---------------------------------------------------------------------

 SCF Done:  E(RB3LYP) =  -839.965324923     A.U. after    1 cycles

 The electronic state is 1-A.
 Alpha  occ. eigenvalues --  -19.18140 -19.15921 -19.15893 -19.15356 -19.15128
 Alpha  occ. eigenvalues --  -19.15027 -19.13713 -19.13123 -10.28952 -10.25050
 Alpha  occ. eigenvalues --  -10.24946 -10.24075 -10.23807 -10.23461  -1.05569
 Alpha  occ. eigenvalues --   -1.04829  -1.03952  -1.02344  -1.01544  -1.01146
 Alpha  occ. eigenvalues --   -0.99976  -0.98014  -0.78067  -0.75444  -0.69362
 Alpha  occ. eigenvalues --   -0.63883  -0.61112  -0.58407  -0.55510  -0.55368
 Alpha  occ. eigenvalues --   -0.53815  -0.52862  -0.52626  -0.50563  -0.49686
 Alpha  occ. eigenvalues --   -0.46749  -0.45816  -0.45311  -0.44115  -0.43124
 Alpha  occ. eigenvalues --   -0.42942  -0.41699  -0.40023  -0.39263  -0.37522
 Alpha  occ. eigenvalues --   -0.36115  -0.35562  -0.35193  -0.34183  -0.33714
 Alpha  occ. eigenvalues --   -0.31360  -0.30720  -0.29554  -0.28016  -0.27530
 Alpha  occ. eigenvalues --   -0.26367  -0.26057  -0.25767
 Alpha virt. eigenvalues --    0.01540   0.04115   0.04971   0.08139   0.08982
 Alpha virt. eigenvalues --    0.09702   0.11934   0.12507   0.13642   0.14537
 Alpha virt. eigenvalues --    0.15375   0.16041   0.16505   0.18091   0.18847

 Mulliken charges:
               1
     1  C    0.337622
     2  O   -0.658485
     3  O   -0.579244
     4  H    0.470032
     5  H    0.396723
     6  H    0.409181
     7  O   -0.835403
     8  H    0.461359
     9  O   -0.850135
    10  H    0.483190
    11  C    0.132636
    12  C    0.102265
    13  C    0.127829
    14  C    0.111179
    15  H    0.115646
    16  H    0.141232
    17  H    0.128944
    18  H    0.098118
    19  H    0.118645
    20  O   -0.645671
    21  O   -0.666809
    22  O   -0.681414
    23  H    0.418333
    24  H    0.416196
    25  H    0.417063
    26  C   -0.074332
    27  O   -0.619275
    28  H    0.149360
    29  H    0.172828
    30  H    0.402387
 Sum of Mulliken charges =   0.00000

 Dipole moment (field-independent basis, Debye):
    X=              0.7240    Y=             -4.0487    Z=             -2.0615  Tot=              4.6007
 Quadrupole moment (field-independent basis, Debye-Ang):
   XX=            -81.6439   YY=            -86.1749   ZZ=            -80.3940
   XY=              5.4177   XZ=             -2.9773   YZ=              5.5075

  Exact polarizability: 117.870  -2.236 107.830  -3.827   3.178  76.724
 Approx polarizability: 152.808  -7.149 140.680  -7.346   5.619 120.982

 ******    1 imaginary frequencies (negative Signs) ******

                      1                      2                      3
                      A                      A                      A
 Frequencies --  -1381.3238                43.0141                54.9601
 Red. masses --      1.0860                 5.4031                 5.7667
 Frc consts  --      1.2209                 0.0059                 0.0103
 IR Inten    --    390.4679                 0.3983                 0.4652

                      4                      5                      6
                      A                      A                      A
 Frequencies --     78.8310                94.1574               114.0935
 Red. masses --      6.1206                 5.0426                 7.6387
 Frc consts  --      0.0224                 0.0263                 0.0586
 IR Inten    --      1.7535                 2.5598                 3.1703

                      7                      8                      9
                      A                      A                      A
 Frequencies --    128.6417               166.2588               179.1264
 Red. masses --      6.2698                 4.8313                 3.0302
 Frc consts  --      0.0611                 0.0787                 0.0573
 IR Inten    --      3.5837                 7.5002                26.4362

                     10                     11                     12
                      A                      A                      A
 Frequencies --    238.2140               243.2214               273.9963
 Red. masses --      4.8789                 5.4425                 3.4133
 Frc consts  --      0.1631                 0.1897                 0.1510
 IR Inten    --     18.6553                12.3208                 6.2021

                     13                     14                     15
                      A                      A                      A
 Frequencies --    282.3463               319.6581               324.5383
 Red. masses --      4.2545                 5.6072                 1.2322
 Frc consts  --      0.1998                 0.3376                 0.0765
 IR Inten    --      6.8033                29.8151               143.4013

                     16                     17                     18
                      A                      A                      A
 Frequencies --    339.3961               367.7068               396.7678
 Red. masses --      5.4449                 5.7862                 1.7876
 Frc consts  --      0.3695                 0.4609                 0.1658
 IR Inten    --     10.1068                55.5500                51.7531

                     19                     20                     21
                      A                      A                      A
 Frequencies --    420.8439               432.1918               447.3031
 Red. masses --      1.0785                 1.9509                 3.0884
 Frc consts  --      0.1125                 0.2147                 0.3641
 IR Inten    --    134.7810               106.4377                39.0971

                     22                     23                     24
                      A                      A                      A
 Frequencies --    453.1641               496.9168               534.7008
 Red. masses --      1.1688                 4.7369                 4.5292
 Frc consts  --      0.1414                 0.6891                 0.7629
 IR Inten    --     28.8467                61.4577                50.0428

                     25                     26                     27
                      A                      A                      A
 Frequencies --    545.8830               559.6613               579.6350
 Red. masses --      2.7348                 1.8023                 2.8225
 Frc consts  --      0.4801                 0.3326                 0.5587
 IR Inten    --     81.8967                70.2896                32.6860

                     28                     29                     30
                      A                      A                      A
 Frequencies --    603.7294               612.0584               640.2547
 Red. masses --      4.5016                 2.7113                 1.5248
 Frc consts  --      0.9667                 0.5984                 0.3683
 IR Inten    --    192.8500               173.1045               138.9159

                     31                     32                     33
                      A                      A                      A
 Frequencies --    645.4623               696.8543               702.7477
 Red. masses --      1.2996                 4.4880                 3.1110
 Frc consts  --      0.3190                 1.2841                 0.9052
 IR Inten    --     30.3707                 0.9886                99.6816

                     34                     35                     36
                      A                      A                      A
 Frequencies --    766.5335               909.9416              1012.0750
 Red. masses --      1.0768                 1.7137                 3.5220
 Frc consts  --      0.3728                 0.8360                 2.1255
 IR Inten    --     78.6664                23.8784               369.9976

                     37                     38                     39
                      A                      A                      A
 Frequencies --   1018.1583              1032.6225              1047.8096
 Red. masses --      2.1571                 3.8070                 3.6421
 Frc consts  --      1.3175                 2.3918                 2.3559
 IR Inten    --   2570.3550               114.2100               137.7936

                     40                     41                     42
                      A                      A                      A
 Frequencies --   1064.7237              1075.8016              1097.4436
 Red. masses --      2.4456                 1.9255                 2.0690
 Frc consts  --      1.6335                 1.3130                 1.4681
 IR Inten    --     54.8339               343.1789                15.3974

                     43                     44                     45
                      A                      A                      A
 Frequencies --   1123.3485              1128.3845              1138.8902
 Red. masses --      3.0564                 3.0183                 3.4445
 Frc consts  --      2.2724                 2.2642                 2.6323
 IR Inten    --     78.5400                69.4092               165.6975

                     46                     47                     48
                      A                      A                      A
 Frequencies --   1144.0350              1182.1840              1199.8916
 Red. masses --      2.3115                 1.4689                 1.4693
 Frc consts  --      1.7824                 1.2095                 1.2464
 IR Inten    --    142.1738               494.8298               119.9724

                     49                     50                     51
                      A                      A                      A
 Frequencies --   1245.5407              1277.5148              1291.0011
 Red. masses --      1.3078                 1.1151                 1.1273
 Frc consts  --      1.1954                 1.0722                 1.1070
 IR Inten    --     56.6412                16.1439                45.0528

                     52                     53                     54
                      A                      A                      A
 Frequencies --   1296.4661              1328.3988              1352.3984
 Red. masses --      1.1356                 1.2289                 1.0982
 Frc consts  --      1.1246                 1.2777                 1.1835
 IR Inten    --   1285.4593               130.8935               905.8062

                     55                     56                     57
                      A                      A                      A
 Frequencies --   1364.8854              1378.6357              1383.9675
 Red. masses --      1.1710                 1.2136                 1.2226
 Frc consts  --      1.2853                 1.3590                 1.3797
 IR Inten    --     12.9848               185.6785               361.5737

                     58                     59                     60
                      A                      A                      A
 Frequencies --   1386.4806              1402.5821              1417.0040
 Red. masses --      1.2385                 1.2395                 1.3449
 Frc consts  --      1.4027                 1.4366                 1.5911
 IR Inten    --    243.7607                40.8170                14.5203

                     61                     62                     63
                      A                      A                      A
 Frequencies --   1428.9680              1433.2456              1455.7958
 Red. masses --      1.3580                 1.6265                 1.6941
 Frc consts  --      1.6338                 1.9685                 2.1154
 IR Inten    --    127.2829               251.2938                49.1335

                     64                     65                     66
                      A                      A                      A
 Frequencies --   1477.9474              1531.8365              1538.4305
 Red. masses --      1.5353                 1.1449                 1.2581
 Frc consts  --      1.9758                 1.5829                 1.7543
 IR Inten    --     25.7136               473.7228              1108.0239

                     67                     68                     69
                      A                      A                      A
 Frequencies --   1595.4746              1647.6117              1703.3617
 Red. masses --      1.0785                 1.4242                 1.3806
 Frc consts  --      1.6175                 2.2779                 2.3601
 IR Inten    --    383.8969               130.0969               505.5558

                     70                     71                     72
                      A                      A                      A
 Frequencies --   1752.4146              1846.4822              2934.0891
 Red. masses --      1.0652                 1.0415                 1.0815
 Frc consts  --      1.9274                 2.0922                 5.4857
 IR Inten    --    203.4212                 4.2267                45.6591

                     73                     74                     75
                      A                      A                      A
 Frequencies --   2976.0955              2996.2951              3001.9944
 Red. masses --      1.0817                 1.0868                 1.0851
 Frc consts  --      5.6447                 5.7486                 5.7614
 IR Inten    --      7.2559                39.5230                87.2774

                     76                     77                     78
                      A                      A                      A
 Frequencies --   3036.9263              3046.9556              3129.6205
 Red. masses --      1.0852                 1.0674                 1.1000
 Frc consts  --      5.8969                 5.8387                 6.3477
 IR Inten    --     71.9260                46.1041                21.8382

                     79                     80                     81
                      A                      A                      A
 Frequencies --   3643.2569              3704.7870              3719.6761
 Red. masses --      1.0657                 1.0653                 1.0655
 Frc consts  --      8.3346                 8.6148                 8.6860
 IR Inten    --    164.9304                53.5202                45.3107

                     82                     83                     84
                      A                      A                      A
 Frequencies --   3738.2065              3774.7521              3775.6716
 Red. masses --      1.0662                 1.0649                 1.0651
 Frc consts  --      8.7787                 8.9397                 8.9460
 IR Inten    --     23.5415                30.3750                42.7287

 - Thermochemistry -
 -------------------
 Temperature   298.150 Kelvin.  Pressure   1.00000 Atm.
 Atom     1 has atomic number  6 and mass  12.00000

 Molecular mass:   216.08452 amu.
 Principal axes and moments of inertia in atomic units:
                           1         2         3
     Eigenvalues --  2632.930433463.641875848.84344
           X            0.99957   0.02922   0.00174
           Y           -0.02922   0.99957   0.00296
           Z           -0.00165  -0.00301   0.99999
 This molecule is an asymmetric top.
 Rotational symmetry number  1.
 Warning -- assumption of classical behavior for rotation
           may cause significant error
 Rotational temperatures (Kelvin)      0.03290     0.02501     0.01481
 Rotational constants (GHZ):           0.68545     0.52105     0.30856
    1 imaginary frequencies ignored.
 Zero-point vibrational energy     627877.7 (Joules/Mol)
                                  150.06636 (Kcal/Mol)
 Warning -- explicit consideration of  28 degrees of freedom as
           vibrations may cause significant error
 Vibrational temperatures:     61.89    79.08   113.42   135.47   164.15
          (Kelvin)            185.09   239.21   257.72   342.74   349.94
                              394.22   406.23   459.92   466.94   488.31
                              529.05   570.86   605.50   621.83   643.57
                              652.00   714.95   769.31   785.40   805.23
                              833.96   868.63   880.61   921.18   928.68
                             1002.62  1011.10  1102.87  1309.20  1456.15
                             1464.90  1485.71  1507.56  1531.90  1547.84
                             1578.97  1616.25  1623.49  1638.61  1646.01
                             1700.90  1726.37  1792.05  1838.06  1857.46
                             1865.32  1911.27  1945.80  1963.76  1983.55
                             1991.22  1994.83  2018.00  2038.75  2055.96
                             2062.12  2094.56  2126.43  2203.97  2213.46
                             2295.53  2370.54  2450.75  2521.33  2656.67
                             4221.49  4281.93  4310.99  4319.19  4369.45
                             4383.88  4502.82  5241.83  5330.36  5351.78
                             5378.44  5431.02  5432.34

 Zero-point correction=                           0.239146 (Hartree/Particle)
 Thermal correction to Energy=                    0.255001
 Thermal correction to Enthalpy=                  0.255945
 Thermal correction to Gibbs Free Energy=         0.196496
 Sum of electronic and zero-point Energies=           -839.726179
 Sum of electronic and thermal Energies=              -839.710324
 Sum of electronic and thermal Enthalpies=            -839.709380
 Sum of electronic and thermal Free Energies=         -839.768829

                     E (Thermal)             CV                S
                      KCal/Mol        Cal/Mol-Kelvin    Cal/Mol-Kelvin
 Total                  160.016             60.349            125.122
 Electronic               0.000              0.000              0.000
 Translational            0.889              2.981             42.015
 Rotational               0.889              2.981             32.345
 Vibrational            158.238             54.387             50.762
 Vibration     1          0.595              1.980              5.115
 Vibration     2          0.596              1.976              4.630
 Vibration     3          0.600              1.963              3.920
 Vibration     4          0.603              1.953              3.572
 Vibration     5          0.607              1.938              3.198
 Vibration     6          0.611              1.925              2.966
 Vibration     7          0.624              1.884              2.477
 Vibration     8          0.629              1.868              2.338
 Vibration     9          0.656              1.782              1.816
 Vibration    10          0.659              1.774              1.779
 Vibration    11          0.676              1.721              1.571
 Vibration    12          0.681              1.706              1.519
 Vibration    13          0.706              1.636              1.312
 Vibration    14          0.709              1.626              1.287
 Vibration    15          0.719              1.597              1.215
 Vibration    16          0.740              1.539              1.089
 Vibration    17          0.763              1.477              0.975
 Vibration    18          0.783              1.425              0.889
 Vibration    19          0.793              1.400              0.852
 Vibration    20          0.806              1.367              0.804
 Vibration    21          0.812              1.354              0.786
 Vibration    22          0.852              1.257              0.666
 Vibration    23          0.890              1.173              0.577
 Vibration    24          0.901              1.149              0.553
 Vibration    25          0.915              1.119              0.525
 Vibration    26          0.936              1.075              0.486
 Vibration    27          0.962              1.024              0.443
 Vibration    28          0.971              1.006              0.429

 Optimization completed.
    -- Stationary point found.
 Normal termination of Gaussian 09 at Sat Jun  4 20:58:17 2016.
