 Gaussian 09, Revision E.01,
 Gaussian 09:  ES64L-G09RevE.01 30-Nov-2015

 ----------------------------------------------------------------------
 # opt=(TS,CalcFC,NoEigenTest,MaxCycle=500,cartesian) Freq B3LYP 6-31G(
 d)
 ----------------------------------------------------------------------

 -----------------------------
 glo_1w_beta_boat__B3LYP_631Gd
 -----------------------------
 Symbolic Z-matrix:
 Charge =  0 Multiplicity = 1

 SCF Done:  E(RB3LYP) =  -839.899841168     A.U. after   14 cycles
 SCF Done:  E(RB3LYP) =  -839.912244012     A.U. after   12 cycles
 SCF Done:  E(RB3LYP) =  -839.922158301     A.U. after   12 cycles
 SCF Done:  E(RB3LYP) =  -839.929523906     A.U. after   12 cycles
 SCF Done:  E(RB3LYP) =  -839.934198759     A.U. after   11 cycles
 SCF Done:  E(RB3LYP) =  -839.937862900     A.U. after   11 cycles
 SCF Done:  E(RB3LYP) =  -839.940438152     A.U. after   11 cycles
 SCF Done:  E(RB3LYP) =  -839.942640434     A.U. after   12 cycles
 SCF Done:  E(RB3LYP) =  -839.944516617     A.U. after   11 cycles
 SCF Done:  E(RB3LYP) =  -839.946177032     A.U. after   11 cycles
 SCF Done:  E(RB3LYP) =  -839.950625387     A.U. after   10 cycles
 SCF Done:  E(RB3LYP) =  -839.950626647     A.U. after   10 cycles
 SCF Done:  E(RB3LYP) =  -839.950627601     A.U. after    8 cycles
 SCF Done:  E(RB3LYP) =  -839.950627766     A.U. after    8 cycles
 SCF Done:  E(RB3LYP) =  -839.950628348     A.U. after    8 cycles
 SCF Done:  E(RB3LYP) =  -839.950628625     A.U. after    7 cycles
 SCF Done:  E(RB3LYP) =  -839.950628721     A.U. after    8 cycles
 SCF Done:  E(RB3LYP) =  -839.950628754     A.U. after    7 cycles
 SCF Done:  E(RB3LYP) =  -839.950628744     A.U. after    7 cycles
 Optimization completed.
    -- Stationary point found.
 Normal termination of Gaussian 09 at Sat Jan  7 22:38:25 2017.

 --------------------------------------------------------------------
 #N Geom=AllCheck Guess=TCheck SCRF=Check GenChk RB3LYP/6-31G(d) Freq
 --------------------------------------------------------------------

 Structure from the checkpoint file:  "/scratch/10446901.yak.local/Gau-984.chk"
 -----------------------------
 glo_1w_beta_boat__B3LYP_631Gd
 -----------------------------
 Charge =  0 Multiplicity = 1

                         Standard orientation:
 ---------------------------------------------------------------------
 Center     Atomic      Atomic             Coordinates (Angstroms)
 Number     Number       Type             X           Y           Z
 ---------------------------------------------------------------------
      1          6           0        1.691274   -0.631916   -1.085319
      2          8           0        0.963166    1.029796   -0.833736
      3          1           0        3.340338    1.941325    0.494604
      4          8           0        2.879066   -0.543711   -0.608673
      5          1           0        2.906852    0.300911    0.349027
      6          8           0        2.658154    1.335755    0.832550
      7          1           0        1.748137    1.385212    0.078479
      8          6           0       -0.651213    0.289137    0.828386
      9          6           0       -0.414237    1.031384   -0.500601
     10          6           0       -0.914224    2.479928   -0.449401
     11          8           0       -2.330321    2.539617   -0.191786
     12          8           0       -2.055001    0.075794    1.050963
     13          1           0        1.586961   -0.626091   -2.178604
     14          1           0       -2.489146    0.927349    0.830696
     15          1           0       -0.253639    0.914094    1.645212
     16          1           0       -0.954698    0.493594   -1.288013
     17          1           0       -0.660641    2.994640   -1.384170
     18          1           0       -0.441159    3.022050    0.376257
     19          1           0       -2.788049    2.307401   -1.015868
     20          8           0       -2.809196   -2.274982   -0.233515
     21          1           0       -2.716154   -1.416010    0.238927
     22          1           0       -2.994281   -2.922920    0.462308
     23          6           0        0.076946   -1.078933    0.902455
     24          1           0       -0.675185   -1.815377    1.224378
     25          6           0        0.646113   -1.563566   -0.446900
     26          1           0        1.193926   -2.497933   -0.240629
     27          8           0        1.171196   -1.064018    1.807880
     28          1           0        0.854030   -0.742327    2.665746
     29          8           0       -0.365521   -1.754302   -1.416252
     30          1           0       -1.157588   -2.173720   -1.009516
 ---------------------------------------------------------------------

 SCF Done:  E(RB3LYP) =  -839.950628744     A.U. after    1 cycles

 The electronic state is 1-A.
 Alpha  occ. eigenvalues --  -19.18518 -19.16601 -19.16440 -19.15344 -19.15155
 Alpha  occ. eigenvalues --  -19.14923 -19.12741 -19.10967 -10.27752 -10.25140
 Alpha  occ. eigenvalues --  -10.24779 -10.24436 -10.24093 -10.23204  -1.05780
 Alpha  occ. eigenvalues --   -1.04791  -1.03596  -1.02393  -1.01084  -1.00204
 Alpha  occ. eigenvalues --   -0.99210  -0.98959  -0.77181  -0.74834  -0.69687
 Alpha  occ. eigenvalues --   -0.64694  -0.61914  -0.57626  -0.55128  -0.53916
 Alpha  occ. eigenvalues --   -0.53187  -0.52730  -0.51102  -0.50195  -0.48735
 Alpha  occ. eigenvalues --   -0.47371  -0.46766  -0.45789  -0.43447  -0.41743
 Alpha  occ. eigenvalues --   -0.41570  -0.40918  -0.40428  -0.39153  -0.38111
 Alpha  occ. eigenvalues --   -0.37395  -0.35478  -0.34757  -0.33905  -0.33538
 Alpha  occ. eigenvalues --   -0.30831  -0.30409  -0.30280  -0.28161  -0.27192
 Alpha  occ. eigenvalues --   -0.25969  -0.25229  -0.23435
 Alpha virt. eigenvalues --    0.02257   0.04253   0.06542   0.06682   0.07712
 Alpha virt. eigenvalues --    0.09533   0.10606   0.12933   0.13594   0.14997
 Alpha virt. eigenvalues --    0.15347   0.17111   0.17511   0.19094   0.20278

 Mulliken charges:
               1
     1  C    0.326557
     2  O   -0.658766
     3  H    0.404680
     4  O   -0.614559
     5  H    0.481395
     6  O   -0.812387
     7  H    0.454344
     8  C    0.100340
     9  C    0.121430
    10  C   -0.079333
    11  O   -0.623706
    12  O   -0.682944
    13  H    0.151913
    14  H    0.424544
    15  H    0.127153
    16  H    0.159172
    17  H    0.157803
    18  H    0.158889
    19  H    0.408519
    20  O   -0.812523
    21  H    0.431027
    22  H    0.394700
    23  C    0.075548
    24  H    0.118567
    25  C    0.101103
    26  H    0.151934
    27  O   -0.617962
    28  H    0.396458
    29  O   -0.677731
    30  H    0.433836
 Sum of Mulliken charges =   0.00000

 Dipole moment (field-independent basis, Debye):
    X=             -2.3926    Y=              2.5679    Z=              1.7035  Tot=              3.9014
 Quadrupole moment (field-independent basis, Debye-Ang):
   XX=            -84.8091   YY=            -77.6007   ZZ=            -82.8399
   XY=              7.0260   XZ=             -0.1698   YZ=             -8.6936

  Exact polarizability: 109.263   0.755 100.147   3.330   1.197  85.526
 Approx polarizability: 151.721  -1.178 134.625   8.744   4.270 127.671

 ******    1 imaginary frequencies (negative Signs) ******

                      1                      2                      3
                      A                      A                      A
 Frequencies --  -1436.3738                46.5654                73.7195
 Red. masses --      1.1280                 6.0690                 5.9755
 Frc consts  --      1.3712                 0.0078                 0.0191
 IR Inten    --    231.3022                 2.0356                 3.3645

                      4                      5                      6
                      A                      A                      A
 Frequencies --     87.1039               117.2152               143.3830
 Red. masses --      5.7511                 4.4453                 6.3062
 Frc consts  --      0.0257                 0.0360                 0.0764
 IR Inten    --      0.6379                 3.8305                 6.8138

                      7                      8                      9
                      A                      A                      A
 Frequencies --    167.8105               178.5730               187.7843
 Red. masses --      4.8125                 4.4587                 4.8531
 Frc consts  --      0.0798                 0.0838                 0.1008
 IR Inten    --      1.1574                 5.3340                16.8022

                     10                     11                     12
                      A                      A                      A
 Frequencies --    208.7519               225.5075               257.4160
 Red. masses --      5.0581                 6.0909                 5.4669
 Frc consts  --      0.1299                 0.1825                 0.2134
 IR Inten    --      8.7878                 8.9491                18.4147

                     13                     14                     15
                      A                      A                      A
 Frequencies --    284.6149               286.2992               309.6721
 Red. masses --      1.4533                 3.4653                 1.1388
 Frc consts  --      0.0694                 0.1674                 0.0643
 IR Inten    --     80.9026                36.9283                81.2005

                     16                     17                     18
                      A                      A                      A
 Frequencies --    327.9105               363.5799               366.0438
 Red. masses --      3.2707                 2.0486                 1.2366
 Frc consts  --      0.2072                 0.1596                 0.0976
 IR Inten    --     15.1151                30.5032                49.8852

                     19                     20                     21
                      A                      A                      A
 Frequencies --    383.0631               404.3776               441.0451
 Red. masses --      1.6931                 3.1797                 5.5555
 Frc consts  --      0.1464                 0.3063                 0.6367
 IR Inten    --    174.6045                27.1541                 7.0450

                     22                     23                     24
                      A                      A                      A
 Frequencies --    454.6431               466.9683               494.7450
 Red. masses --      4.5242                 4.1945                 2.4370
 Frc consts  --      0.5510                 0.5389                 0.3515
 IR Inten    --     49.7017                63.5190                22.8904

                     25                     26                     27
                      A                      A                      A
 Frequencies --    511.9072               533.1094               540.9126
 Red. masses --      3.5087                 3.8075                 3.1664
 Frc consts  --      0.5417                 0.6376                 0.5458
 IR Inten    --     44.7217                90.7758                44.6353

                     28                     29                     30
                      A                      A                      A
 Frequencies --    598.8321               618.5726               646.1388
 Red. masses --      2.9003                 3.9958                 1.5302
 Frc consts  --      0.6128                 0.9008                 0.3764
 IR Inten    --     76.7918                42.0910                65.2522

                     31                     32                     33
                      A                      A                      A
 Frequencies --    678.0637               695.0759               762.6353
 Red. masses --      1.1191                 3.1237                 1.1446
 Frc consts  --      0.3032                 0.8892                 0.3922
 IR Inten    --    277.9427                54.9151                41.8655

                     34                     35                     36
                      A                      A                      A
 Frequencies --    793.4748               856.5689               899.8154
 Red. masses --      3.2102                 3.0688                 1.0855
 Frc consts  --      1.1908                 1.3266                 0.5179
 IR Inten    --     28.1231                 2.2596               115.8155

                     37                     38                     39
                      A                      A                      A
 Frequencies --    904.3509              1002.8996              1025.2459
 Red. masses --      1.8888                 2.1942                 4.9720
 Frc consts  --      0.9101                 1.3003                 3.0792
 IR Inten    --     21.9135                38.0578               120.1306

                     40                     41                     42
                      A                      A                      A
 Frequencies --   1060.3307              1073.2074              1077.8205
 Red. masses --      2.8679                 5.8805                 2.9230
 Frc consts  --      1.8998                 3.9906                 2.0006
 IR Inten    --     14.9461               259.7643               235.1571

                     43                     44                     45
                      A                      A                      A
 Frequencies --   1083.6122              1116.2870              1135.0359
 Red. masses --      2.0863                 2.7388                 4.0470
 Frc consts  --      1.4434                 2.0107                 3.0719
 IR Inten    --      9.3754                 9.0047                98.8014

                     46                     47                     48
                      A                      A                      A
 Frequencies --   1140.6924              1167.6333              1191.9230
 Red. masses --      3.0502                 1.6115                 1.4027
 Frc consts  --      2.3384                 1.2945                 1.1741
 IR Inten    --     11.0377                75.2808                57.4230

                     49                     50                     51
                      A                      A                      A
 Frequencies --   1240.4222              1281.9245              1299.1475
 Red. masses --      1.1921                 1.1542                 1.2312
 Frc consts  --      1.0807                 1.1175                 1.2243
 IR Inten    --    228.4270              1443.3537                15.6547

                     52                     53                     54
                      A                      A                      A
 Frequencies --   1311.8532              1324.9126              1342.1226
 Red. masses --      1.1301                 1.1277                 1.2007
 Frc consts  --      1.1458                 1.1663                 1.2743
 IR Inten    --     30.2194                80.6647                 2.9344

                     55                     56                     57
                      A                      A                      A
 Frequencies --   1354.5201              1374.9961              1385.1950
 Red. masses --      1.1587                 1.2830                 1.2900
 Frc consts  --      1.2525                 1.4292                 1.4583
 IR Inten    --     48.9475                37.2356                49.0346

                     58                     59                     60
                      A                      A                      A
 Frequencies --   1386.9795              1416.8246              1429.5306
 Red. masses --      1.3129                 1.2640                 1.4524
 Frc consts  --      1.4881                 1.4949                 1.7487
 IR Inten    --     86.6953                30.7394               280.0472

                     61                     62                     63
                      A                      A                      A
 Frequencies --   1435.1839              1452.0598              1480.8836
 Red. masses --      1.3217                 1.3986                 1.4460
 Frc consts  --      1.6039                 1.7375                 1.8684
 IR Inten    --     65.9833               190.3596                40.8044

                     64                     65                     66
                      A                      A                      A
 Frequencies --   1485.0970              1533.4689              1595.0803
 Red. masses --      1.3464                 1.0925                 1.7758
 Frc consts  --      1.7496                 1.5136                 2.6619
 IR Inten    --    505.3313                 1.4761               231.9335

                     67                     68                     69
                      A                      A                      A
 Frequencies --   1611.0814              1628.5230              1721.6883
 Red. masses --      1.1564                 1.2113                 1.0757
 Frc consts  --      1.7684                 1.8927                 1.8787
 IR Inten    --    601.1684               251.0902                48.4627

                     70                     71                     72
                      A                      A                      A
 Frequencies --   1936.8239              2984.7457              2996.2045
 Red. masses --      1.0175                 1.0839                 1.0825
 Frc consts  --      2.2489                 5.6892                 5.7257
 IR Inten    --    143.4483                45.4415                51.2209

                     73                     74                     75
                      A                      A                      A
 Frequencies --   3010.7170              3057.4866              3061.1867
 Red. masses --      1.0840                 1.0599                 1.0891
 Frc consts  --      5.7894                 5.8375                 6.0132
 IR Inten    --     49.7411                38.2738                47.8472

                     76                     77                     78
                      A                      A                      A
 Frequencies --   3073.9120              3115.5325              3462.6470
 Red. masses --      1.0859                 1.1072                 1.0650
 Frc consts  --      6.0454                 6.3319                 7.5235
 IR Inten    --     13.2508                32.5129               206.0268

                     79                     80                     81
                      A                      A                      A
 Frequencies --   3524.6992              3567.5000              3738.5319
 Red. masses --      1.0636                 1.0650                 1.0663
 Frc consts  --      7.7851                 7.9856                 8.7811
 IR Inten    --    715.0082               181.0653                30.7305

                     82                     83                     84
                      A                      A                      A
 Frequencies --   3746.9126              3747.2333              3803.2531
 Red. masses --      1.0661                 1.0650                 1.0694
 Frc consts  --      8.8186                 8.8106                 9.1141
 IR Inten    --     19.3132                36.0685                60.9491

 - Thermochemistry -
 -------------------
 Temperature   298.150 Kelvin.  Pressure   1.00000 Atm.
 Atom     1 has atomic number  6 and mass  12.00000

 Molecular mass:   216.08452 amu.
 Principal axes and moments of inertia in atomic units:
                           1         2         3
     Eigenvalues --  2468.158813137.280504213.33303
           X            0.99891   0.04644   0.00373
           Y           -0.04639   0.99883  -0.01388
           Z           -0.00437   0.01369   0.99990
 This molecule is an asymmetric top.
 Rotational symmetry number  1.
 Warning -- assumption of classical behavior for rotation
           may cause significant error
 Rotational temperatures (Kelvin)      0.03509     0.02761     0.02056
 Rotational constants (GHZ):           0.73121     0.57526     0.42834
    1 imaginary frequencies ignored.
 Zero-point vibrational energy     635873.9 (Joules/Mol)
                                  151.97751 (Kcal/Mol)
 Warning -- explicit consideration of  28 degrees of freedom as
           vibrations may cause significant error
 Vibrational temperatures:     67.00   106.07   125.32   168.65   206.30
          (Kelvin)            241.44   256.93   270.18   300.35   324.45
                              370.36   409.50   411.92   445.55   471.79
                              523.11   526.65   551.14   581.81   634.56
                              654.13   671.86   711.83   736.52   767.02
                              778.25   861.58   889.99   929.65   975.58
                             1000.06  1097.26  1141.63  1232.41  1294.63
                             1301.16  1442.95  1475.10  1525.58  1544.10
                             1550.74  1559.07  1606.09  1633.06  1641.20
                             1679.96  1714.91  1784.69  1844.40  1869.18
                             1887.46  1906.25  1931.01  1948.85  1978.31
                             1992.98  1995.55  2038.49  2056.77  2064.91
                             2089.19  2130.66  2136.72  2206.32  2294.96
                             2317.98  2343.08  2477.12  2786.65  4294.38
                             4310.86  4331.74  4399.04  4404.36  4422.67
                             4482.55  4981.97  5071.25  5132.83  5378.91
                             5390.96  5391.43  5472.03

 Zero-point correction=                           0.242192 (Hartree/Particle)
 Thermal correction to Energy=                    0.258178
 Thermal correction to Enthalpy=                  0.259122
 Thermal correction to Gibbs Free Energy=         0.200354
 Sum of electronic and zero-point Energies=           -839.708437
 Sum of electronic and thermal Energies=              -839.692451
 Sum of electronic and thermal Enthalpies=            -839.691507
 Sum of electronic and thermal Free Energies=         -839.750275

                     E (Thermal)             CV                S
                      KCal/Mol        Cal/Mol-Kelvin    Cal/Mol-Kelvin
 Total                  162.009             61.210            123.687
 Electronic               0.000              0.000              0.000
 Translational            0.889              2.981             42.015
 Rotational               0.889              2.981             31.856
 Vibrational            160.232             55.248             49.816
 Vibration     1          0.595              1.979              4.958
 Vibration     2          0.599              1.966              4.052
 Vibration     3          0.601              1.958              3.724
 Vibration     4          0.608              1.935              3.146
 Vibration     5          0.616              1.910              2.758
 Vibration     6          0.625              1.882              2.460
 Vibration     7          0.629              1.869              2.343
 Vibration     8          0.632              1.857              2.250
 Vibration     9          0.642              1.827              2.055
 Vibration    10          0.650              1.802              1.914
 Vibration    11          0.667              1.750              1.679
 Vibration    12          0.683              1.702              1.506
 Vibration    13          0.684              1.699              1.496
 Vibration    14          0.699              1.655              1.364
 Vibration    15          0.711              1.620              1.270
 Vibration    16          0.737              1.547              1.107
 Vibration    17          0.739              1.542              1.096
 Vibration    18          0.752              1.506              1.027
 Vibration    19          0.770              1.461              0.947
 Vibration    20          0.801              1.381              0.823
 Vibration    21          0.813              1.351              0.782
 Vibration    22          0.824              1.323              0.746
 Vibration    23          0.850              1.262              0.671
 Vibration    24          0.867              1.224              0.629
 Vibration    25          0.888              1.177              0.580
 Vibration    26          0.896              1.160              0.563
 Vibration    27          0.957              1.034              0.452
 Vibration    28          0.978              0.993              0.419

 Normal termination of Gaussian 09 at Sat Jan  7 23:13:36 2017.
