 Gaussian 09, Revision E.01,
 Gaussian 09:  ES64L-G09RevE.01 30-Nov-2015

 ----------------------------------------------------------------------
 # opt=(calcfc,ts,noeigentest,maxcycles=10000,cartesian) freq b3lyp 6-3
 1g(d)
 ----------------------------------------------------------------------

 --------------------------
 glo_2w_ALPHA_B3LYP_6-31G_d
 --------------------------
 Symbolic Z-matrix:
 Charge =  0 Multiplicity = 1

 SCF Done:  E(RB3LYP) =  -839.984798542     A.U. after   14 cycles
 SCF Done:  E(RB3LYP) =  -839.984801921     A.U. after    8 cycles
 Optimization completed.
    -- Stationary point found.
 Normal termination of Gaussian 09 at Sat Jan  7 13:02:38 2017.

 --------------------------------------------------------------------
 #N Geom=AllCheck Guess=TCheck SCRF=Check GenChk RB3LYP/6-31G(d) Freq
 --------------------------------------------------------------------

 Structure from the checkpoint file:  "/scratch/10446666.yak.local/Gau-10732.chk"
 --------------------------
 glo_2w_ALPHA_B3LYP_6-31G_d
 --------------------------
 Charge =  0 Multiplicity = 1

                         Standard orientation:
 ---------------------------------------------------------------------
 Center     Atomic      Atomic             Coordinates (Angstroms)
 Number     Number       Type             X           Y           Z
 ---------------------------------------------------------------------
      1          6           0        0.046413   -1.478531    0.351104
      2          8           0        0.375273    0.083194    0.806781
      3          1           0        2.842537    1.186213    0.382539
      4          1           0        3.644665   -2.380404   -0.007926
      5          8           0        3.264718   -1.620294   -0.474933
      6          1           0        3.164111   -0.470055    0.347534
      7          8           0        2.835583    0.364667    0.945132
      8          1           0        1.764492    0.207322    0.993874
      9          6           0       -1.687210    1.040268   -0.064860
     10          6           0       -0.140620    0.980341   -0.191845
     11          1           0       -1.987296    1.889338    0.561985
     12          1           0        0.094559    0.561419   -1.179930
     13          8           0       -2.271044    1.248846   -1.339248
     14          1           0       -2.199202    0.378323   -1.781282
     15          6           0        0.496232    2.359584   -0.086398
     16          8           0        1.881495    2.400074   -0.499888
     17          1           0        0.491480    2.710523    0.949783
     18          1           0       -0.088255    3.060955   -0.693763
     19          1           0        1.908126    2.253750   -1.459523
     20          1           0        0.295431   -1.927808    1.325723
     21          8           0        0.748037   -1.828949   -0.682802
     22          1           0        2.251072   -1.823896   -0.602522
     23          6           0       -1.487497   -1.478294    0.058397
     24          1           0       -1.913166   -2.386739    0.510296
     25          6           0       -2.204005   -0.243329    0.627897
     26          1           0       -3.275707   -0.317717    0.419617
     27          8           0       -1.664349   -1.497812   -1.354734
     28          1           0       -0.769799   -1.773188   -1.674774
     29          8           0       -2.073790   -0.180187    2.042100
     30          1           0       -1.130324   -0.004580    2.203338
 ---------------------------------------------------------------------

 SCF Done:  E(RB3LYP) =  -839.984801921     A.U. after    1 cycles

 The electronic state is 1-A.
 Alpha  occ. eigenvalues --  -19.21322 -19.19939 -19.17308 -19.17064 -19.13954
 Alpha  occ. eigenvalues --  -19.13563 -19.13240 -19.10877 -10.28247 -10.26168
 Alpha  occ. eigenvalues --  -10.24776 -10.23417 -10.22949 -10.22874  -1.09058
 Alpha  occ. eigenvalues --   -1.06018  -1.04897  -1.02427  -1.01305  -1.01251
 Alpha  occ. eigenvalues --   -1.00464  -0.97014  -0.77595  -0.74912  -0.69039
 Alpha  occ. eigenvalues --   -0.64127  -0.61997  -0.59129  -0.56930  -0.56289
 Alpha  occ. eigenvalues --   -0.54750  -0.53487  -0.52728  -0.50986  -0.50060
 Alpha  occ. eigenvalues --   -0.47301  -0.46693  -0.45889  -0.44345  -0.43541
 Alpha  occ. eigenvalues --   -0.42294  -0.41284  -0.40779  -0.39188  -0.38834
 Alpha  occ. eigenvalues --   -0.38355  -0.36907  -0.35978  -0.34320  -0.33460
 Alpha  occ. eigenvalues --   -0.32248  -0.31791  -0.30471  -0.28695  -0.26780
 Alpha  occ. eigenvalues --   -0.25848  -0.25137  -0.23979
 Alpha virt. eigenvalues --    0.03155   0.06003   0.06566   0.08703   0.10487
 Alpha virt. eigenvalues --    0.11453   0.11794   0.12578   0.13580   0.14556
 Alpha virt. eigenvalues --    0.14934   0.15745   0.16558   0.18462   0.20215

 Mulliken charges:
               1
     1  C    0.337837
     2  O   -0.654302
     3  H    0.454155
     4  H    0.407821
     5  O   -0.832698
     6  H    0.463268
     7  O   -0.820293
     8  H    0.474002
     9  C    0.087247
    10  C    0.133014
    11  H    0.140590
    12  H    0.133957
    13  O   -0.655068
    14  H    0.417475
    15  C   -0.100057
    16  O   -0.640947
    17  H    0.172518
    18  H    0.178830
    19  H    0.414578
    20  H    0.110953
    21  O   -0.658668
    22  H    0.452434
    23  C    0.078263
    24  H    0.139060
    25  C    0.107066
    26  H    0.156304
    27  O   -0.674918
    28  H    0.420486
    29  O   -0.645408
    30  H    0.402501
 Sum of Mulliken charges =  -0.00000

 Dipole moment (field-independent basis, Debye):
    X=              4.6579    Y=              0.7039    Z=              0.1653  Tot=              4.7137
 Quadrupole moment (field-independent basis, Debye-Ang):
   XX=            -88.3387   YY=            -79.6960   ZZ=            -87.2290
   XY=             -1.8117   XZ=              0.5385   YZ=             -4.8159

  Exact polarizability: 106.843  -3.053  98.400  -0.116  -0.608  85.690
 Approx polarizability: 138.604  -5.102 131.371   0.763   3.363 136.989

 ******    1 imaginary frequencies (negative Signs) ******

                      1                      2                      3
                      A                      A                      A
 Frequencies --   -273.2234                54.1041                81.5931
 Red. masses --      3.6608                 5.9591                 4.9785
 Frc consts  --      0.1610                 0.0103                 0.0195
 IR Inten    --     51.2577                 2.3321                 2.5777

                      4                      5                      6
                      A                      A                      A
 Frequencies --     88.8576               124.6110               140.2953
 Red. masses --      6.5928                 7.8651                 5.7559
 Frc consts  --      0.0307                 0.0720                 0.0667
 IR Inten    --      0.1260                 2.5741                 2.9768

                      7                      8                      9
                      A                      A                      A
 Frequencies --    190.5166               218.3722               237.3853
 Red. masses --      4.5728                 3.4284                 4.8948
 Frc consts  --      0.0978                 0.0963                 0.1625
 IR Inten    --      3.5210                 8.8126                 4.0365

                     10                     11                     12
                      A                      A                      A
 Frequencies --    246.2441               254.3109               280.4540
 Red. masses --      6.1375                 5.6107                 5.2383
 Frc consts  --      0.2193                 0.2138                 0.2428
 IR Inten    --      5.7604                24.8101                23.4307

                     13                     14                     15
                      A                      A                      A
 Frequencies --    311.8105               343.5598               370.9786
 Red. masses --      4.8468                 6.5120                 3.6896
 Frc consts  --      0.2776                 0.4529                 0.2992
 IR Inten    --     17.6324                48.1928                50.1581

                     16                     17                     18
                      A                      A                      A
 Frequencies --    396.6549               414.4457               438.1395
 Red. masses --      3.0922                 1.4941                 1.7028
 Frc consts  --      0.2866                 0.1512                 0.1926
 IR Inten    --     44.2081                85.5862                28.0988

                     19                     20                     21
                      A                      A                      A
 Frequencies --    449.3717               467.7934               473.1557
 Red. masses --      2.1992                 4.7493                 4.7383
 Frc consts  --      0.2617                 0.6123                 0.6250
 IR Inten    --     70.6153                81.0634                81.8372

                     22                     23                     24
                      A                      A                      A
 Frequencies --    524.8494               560.4543               576.6033
 Red. masses --      5.0405                 2.5705                 2.4073
 Frc consts  --      0.8181                 0.4757                 0.4716
 IR Inten    --     11.1508                29.2163                54.1944

                     25                     26                     27
                      A                      A                      A
 Frequencies --    578.7657               599.2446               615.1273
 Red. masses --      1.2557                 1.9165                 2.2469
 Frc consts  --      0.2478                 0.4055                 0.5009
 IR Inten    --    125.4195                32.9760               131.8527

                     28                     29                     30
                      A                      A                      A
 Frequencies --    633.7589               706.4041               748.1984
 Red. masses --      1.1302                 3.3781                 1.1357
 Frc consts  --      0.2675                 0.9932                 0.3746
 IR Inten    --     23.6794                25.1751                36.0696

                     31                     32                     33
                      A                      A                      A
 Frequencies --    754.5387               834.2498               836.8230
 Red. masses --      1.2434                 1.6669                 2.5246
 Frc consts  --      0.4171                 0.6835                 1.0416
 IR Inten    --    250.8619                71.3854                66.1093

                     34                     35                     36
                      A                      A                      A
 Frequencies --    859.1554               897.0937               913.3237
 Red. masses --      2.1309                 2.6668                 2.7221
 Frc consts  --      0.9267                 1.2645                 1.3378
 IR Inten    --     10.0325                28.5153                 6.3925

                     37                     38                     39
                      A                      A                      A
 Frequencies --   1003.0635              1018.8517              1039.0058
 Red. masses --      1.3897                 2.9020                 2.3961
 Frc consts  --      0.8238                 1.7749                 1.5240
 IR Inten    --    225.0372                 5.6491                42.6707

                     40                     41                     42
                      A                      A                      A
 Frequencies --   1084.9397              1090.1881              1095.9288
 Red. masses --      2.0993                 3.7630                 4.0725
 Frc consts  --      1.4559                 2.6350                 2.8819
 IR Inten    --     70.1820                92.1313               113.0608

                     43                     44                     45
                      A                      A                      A
 Frequencies --   1113.6162              1116.5274              1141.2797
 Red. masses --      2.8842                 4.0422                 2.2809
 Frc consts  --      2.1074                 2.9690                 1.7504
 IR Inten    --      3.9434                23.5928                14.5826

                     46                     47                     48
                      A                      A                      A
 Frequencies --   1168.9368              1211.5343              1241.6588
 Red. masses --      1.1876                 1.2719                 1.4265
 Frc consts  --      0.9561                 1.0999                 1.2958
 IR Inten    --    101.3360                 4.1651                82.4633

                     49                     50                     51
                      A                      A                      A
 Frequencies --   1269.5086              1284.7271              1296.4109
 Red. masses --      1.2073                 1.7247                 1.2511
 Frc consts  --      1.1464                 1.6772                 1.2389
 IR Inten    --     24.3721                24.4749                 4.2334

                     52                     53                     54
                      A                      A                      A
 Frequencies --   1320.7793              1345.7267              1351.8103
 Red. masses --      1.2793                 1.2417                 1.2587
 Frc consts  --      1.3148                 1.3249                 1.3552
 IR Inten    --      8.8299                18.3741                26.7529

                     55                     56                     57
                      A                      A                      A
 Frequencies --   1373.5684              1383.0121              1391.7816
 Red. masses --      1.3921                 1.2731                 1.3244
 Frc consts  --      1.5475                 1.4348                 1.5115
 IR Inten    --      7.8531                74.5895                15.7456

                     58                     59                     60
                      A                      A                      A
 Frequencies --   1420.4985              1431.3960              1438.0185
 Red. masses --      1.2847                 1.6158                 1.6094
 Frc consts  --      1.5273                 1.9505                 1.9609
 IR Inten    --     42.1113                11.1366                23.9227

                     61                     62                     63
                      A                      A                      A
 Frequencies --   1454.7890              1481.7368              1483.6163
 Red. masses --      1.2391                 1.2165                 1.3646
 Frc consts  --      1.5451                 1.5737                 1.7697
 IR Inten    --    116.1311               147.9609               162.5518

                     64                     65                     66
                      A                      A                      A
 Frequencies --   1514.6773              1547.4060              1671.7520
 Red. masses --      1.0848                 1.1096                 1.1663
 Frc consts  --      1.4664                 1.5655                 1.9204
 IR Inten    --     15.0863               602.7459               484.0455

                     67                     68                     69
                      A                      A                      A
 Frequencies --   1683.8004              1789.9274              1918.4031
 Red. masses --      1.0694                 1.1450                 1.0471
 Frc consts  --      1.7864                 2.1613                 2.2705
 IR Inten    --     64.8105              1006.5283               264.6496

                     70                     71                     72
                      A                      A                      A
 Frequencies --   2216.7598              2590.1015              2996.4902
 Red. masses --      1.0621                 1.0752                 1.0873
 Frc consts  --      3.0752                 4.2498                 5.7520
 IR Inten    --   2085.2066              2692.3227                65.4768

                     73                     74                     75
                      A                      A                      A
 Frequencies --   3023.5741              3036.8759              3059.1620
 Red. masses --      1.0860                 1.0834                 1.0823
 Frc consts  --      5.8493                 5.8871                 5.9677
 IR Inten    --     90.5437                14.2017                20.7730

                     76                     77                     78
                      A                      A                      A
 Frequencies --   3069.4613              3100.1912              3131.6228
 Red. masses --      1.0654                 1.0873                 1.1061
 Frc consts  --      5.9143                 6.1571                 6.3913
 IR Inten    --     36.8574                26.3881                13.9883

                     79                     80                     81
                      A                      A                      A
 Frequencies --   3371.2246              3425.2198              3606.7561
 Red. masses --      1.0609                 1.0637                 1.0651
 Frc consts  --      7.1041                 7.3527                 8.1637
 IR Inten    --    470.3427               162.2078               108.6115

                     82                     83                     84
                      A                      A                      A
 Frequencies --   3695.4196              3738.8101              3789.8007
 Red. masses --      1.0648                 1.0662                 1.0651
 Frc consts  --      8.5672                 8.7815                 9.0133
 IR Inten    --     50.4173                32.9213                48.6845

 - Thermochemistry -
 -------------------
 Temperature   298.150 Kelvin.  Pressure   1.00000 Atm.
 Atom     1 has atomic number  6 and mass  12.00000

 Molecular mass:   216.08452 amu.
 Principal axes and moments of inertia in atomic units:
                           1         2         3
     Eigenvalues --  2273.222953375.024704281.69216
           X            0.99994  -0.01053  -0.00023
           Y            0.01053   0.99990  -0.00953
           Z            0.00033   0.00952   0.99995
 This molecule is an asymmetric top.
 Rotational symmetry number  1.
 Warning -- assumption of classical behavior for rotation
           may cause significant error
 Rotational temperatures (Kelvin)      0.03810     0.02566     0.02023
 Rotational constants (GHZ):           0.79391     0.53473     0.42150
    1 imaginary frequencies ignored.
 Zero-point vibrational energy     647488.3 (Joules/Mol)
                                  154.75342 (Kcal/Mol)
 Warning -- explicit consideration of  26 degrees of freedom as
           vibrations may cause significant error
 Vibrational temperatures:     77.84   117.39   127.85   179.29   201.85
          (Kelvin)            274.11   314.19   341.54   354.29   365.90
                              403.51   448.63   494.31   533.75   570.70
                              596.29   630.38   646.54   673.05   680.76
                              755.14   806.37   829.60   832.71   862.18
                              885.03   911.84  1016.36  1076.49  1085.61
                             1200.30  1204.00  1236.13  1290.72  1314.07
                             1443.18  1465.90  1494.90  1560.98  1568.54
                             1576.80  1602.24  1606.43  1642.04  1681.84
                             1743.13  1786.47  1826.54  1848.43  1865.24
                             1900.30  1936.20  1944.95  1976.26  1989.84
                             2002.46  2043.78  2059.46  2068.99  2093.11
                             2131.89  2134.59  2179.28  2226.37  2405.28
                             2422.61  2575.30  2760.15  3189.42  3726.57
                             4311.28  4350.24  4369.38  4401.45  4416.26
                             4460.48  4505.70  4850.43  4928.12  5189.31
                             5316.88  5379.31  5452.67

 Zero-point correction=                           0.246615 (Hartree/Particle)
 Thermal correction to Energy=                    0.261164
 Thermal correction to Enthalpy=                  0.262108
 Thermal correction to Gibbs Free Energy=         0.206243
 Sum of electronic and zero-point Energies=           -839.738187
 Sum of electronic and thermal Energies=              -839.723638
 Sum of electronic and thermal Enthalpies=            -839.722694
 Sum of electronic and thermal Free Energies=         -839.778559

                     E (Thermal)             CV                S
                      KCal/Mol        Cal/Mol-Kelvin    Cal/Mol-Kelvin
 Total                  163.883             57.242            117.578
 Electronic               0.000              0.000              0.000
 Translational            0.889              2.981             42.015
 Rotational               0.889              2.981             31.863
 Vibrational            162.105             51.280             43.700
 Vibration     1          0.596              1.976              4.661
 Vibration     2          0.600              1.962              3.852
 Vibration     3          0.602              1.957              3.685
 Vibration     4          0.610              1.928              3.028
 Vibration     5          0.615              1.913              2.800
 Vibration     6          0.634              1.853              2.223
 Vibration     7          0.646              1.813              1.973
 Vibration     8          0.656              1.783              1.822
 Vibration     9          0.661              1.769              1.757
 Vibration    10          0.665              1.756              1.701
 Vibration    11          0.680              1.710              1.531
 Vibration    12          0.700              1.651              1.353
 Vibration    13          0.722              1.588              1.196
 Vibration    14          0.743              1.532              1.076
 Vibration    15          0.763              1.477              0.975
 Vibration    16          0.778              1.439              0.911
 Vibration    17          0.798              1.387              0.832
 Vibration    18          0.808              1.362              0.798
 Vibration    19          0.825              1.322              0.744
 Vibration    20          0.830              1.310              0.729
 Vibration    21          0.880              1.195              0.599
 Vibration    22          0.916              1.117              0.523
 Vibration    23          0.933              1.082              0.492
 Vibration    24          0.935              1.077              0.488
 Vibration    25          0.957              1.033              0.451
 Vibration    26          0.975              1.000              0.424

 Optimization completed.
    -- Stationary point found.
 Normal termination of Gaussian 09 at Sat Jan  7 13:35:51 2017.
