 Gaussian 09, Revision D.01,
 Gaussian 09:  AM64L-G09RevD.01 24-Apr-2013

 -----------------------------------------------------------------
 # opt=(TS, CalcFC, NoEigenTest, MaxCycle=500) Freq B3LYP/6-31G(d)
 -----------------------------------------------------------------

 --------------------------
 glo_2w_ALPHA_B3LYP_6-31G_d
 --------------------------
 Symbolic Z-matrix:
 Charge =  0 Multiplicity = 1

 SCF Done:  E(RB3LYP) =  -839.972557860     A.U. after   14 cycles
 Optimization completed.
    -- Stationary point found.
 Normal termination of Gaussian 09 at Sat Jun  4 20:21:04 2016.

 --------------------------------------------------------------------
 #N Geom=AllCheck Guess=TCheck SCRF=Check GenChk RB3LYP/6-31G(d) Freq
 --------------------------------------------------------------------

 Structure from the checkpoint file:  "/home/iawad/scratch/MAIN/PRO_Halides/direct/TsF/glo_2w_ALPHA/glo_2w_ALPHA_B3LYP_6-31G_d.chk"
 --------------------------
 glo_2w_ALPHA_B3LYP_6-31G_d
 --------------------------
 Charge =  0 Multiplicity = 1

                         Standard orientation:
 ---------------------------------------------------------------------
 Center     Atomic      Atomic             Coordinates (Angstroms)
 Number     Number       Type             X           Y           Z
 ---------------------------------------------------------------------
      1          6           0        0.122634   -1.472280   -0.316127
      2          8           0       -0.598003   -0.049491   -0.913619
      3          1           0       -3.273076    0.345794   -0.469314
      4          1           0       -2.842997   -3.028329    0.813493
      5          8           0       -2.647425   -2.104820    1.035340
      6          1           0       -2.978708   -1.261231    0.011513
      7          8           0       -3.006394   -0.537596   -0.822008
      8          1           0       -1.930544   -0.345043   -0.973922
      9          6           0        1.586196   -1.112776   -0.607293
     10          6           0        1.990728    0.104007    0.223881
     11          6           0        1.144663    1.347099   -0.071627
     12          6           0       -0.355674    1.016797   -0.000466
     13          1           0        1.677394   -0.860550   -1.675061
     14          1           0        1.387730    1.711125   -1.075867
     15          1           0       -0.583706    0.675823    1.025440
     16          1           0        1.851309   -0.168118    1.283309
     17          8           0        2.395303   -2.231125   -0.285731
     18          8           0        3.367667    0.355469   -0.047343
     19          8           0        1.521282    2.412365    0.811991
     20          1           0        3.592556    1.183644    0.407954
     21          1           0        3.309992   -1.902260   -0.291800
     22          1           0        1.363458    2.099463    1.719568
     23          6           0       -1.247056    2.214411   -0.326855
     24          8           0       -2.622370    2.018019    0.067911
     25          1           0       -1.272015    2.380283   -1.407199
     26          1           0       -0.844226    3.112009    0.155607
     27          1           0       -2.661304    2.073662    1.036036
     28          1           0       -0.303699   -2.139049   -1.087349
     29          8           0       -0.206419   -1.669723    0.911925
     30          1           0       -1.570234   -2.005559    1.050792
 ---------------------------------------------------------------------

 SCF Done:  E(RB3LYP) =  -839.972557860     A.U. after    1 cycles

 The electronic state is 1-A.
 Alpha  occ. eigenvalues --  -19.18981 -19.18936 -19.17048 -19.15472 -19.15181
 Alpha  occ. eigenvalues --  -19.15049 -19.12944 -19.09273 -10.26821 -10.25365
 Alpha  occ. eigenvalues --  -10.24636 -10.24538 -10.23306 -10.22434  -1.06914
 Alpha  occ. eigenvalues --   -1.04957  -1.04758  -1.02581  -1.01889  -1.00347
 Alpha  occ. eigenvalues --   -0.99801  -0.96417  -0.77854  -0.75485  -0.69122
 Alpha  occ. eigenvalues --   -0.63526  -0.62067  -0.57148  -0.56314  -0.54906
 Alpha  occ. eigenvalues --   -0.53578  -0.53094  -0.51850  -0.51023  -0.49488
 Alpha  occ. eigenvalues --   -0.47558  -0.46899  -0.45107  -0.44299  -0.43460
 Alpha  occ. eigenvalues --   -0.41791  -0.41044  -0.39921  -0.38937  -0.37598
 Alpha  occ. eigenvalues --   -0.37148  -0.36094  -0.34935  -0.34413  -0.33391
 Alpha  occ. eigenvalues --   -0.31743  -0.31600  -0.30361  -0.28301  -0.26379
 Alpha  occ. eigenvalues --   -0.25379  -0.25104  -0.23125
 Alpha virt. eigenvalues --    0.03658   0.04751   0.06638   0.07370   0.09932
 Alpha virt. eigenvalues --    0.10984   0.12302   0.12648   0.13507   0.14188
 Alpha virt. eigenvalues --    0.14637   0.15572   0.16106   0.18386   0.19139

 Mulliken charges:
               1
     1  C    0.301361
     2  O   -0.636681
     3  H    0.442738
     4  H    0.403279
     5  O   -0.844053
     6  H    0.461989
     7  O   -0.830105
     8  H    0.477927
     9  C    0.161319
    10  C    0.082609
    11  C    0.094290
    12  C    0.113529
    13  H    0.118726
    14  H    0.153547
    15  H    0.120852
    16  H    0.133173
    17  O   -0.643856
    18  O   -0.655268
    19  O   -0.635298
    20  H    0.401940
    21  H    0.408175
    22  H    0.390401
    23  C   -0.078244
    24  O   -0.635672
    25  H    0.173756
    26  H    0.165394
    27  H    0.406861
    28  H    0.104497
    29  O   -0.614677
    30  H    0.457491
 Sum of Mulliken charges =   0.00000

 Dipole moment (field-independent basis, Debye):
    X=             -1.9515    Y=              2.7778    Z=              1.1963  Tot=              3.5994
 Quadrupole moment (field-independent basis, Debye-Ang):
   XX=            -81.3238   YY=            -83.5783   ZZ=            -82.8122
   XY=              4.9662   XZ=             -0.7421   YZ=              6.9422

  Exact polarizability: 109.466   1.914 103.815  -0.994   0.423  81.242
 Approx polarizability: 137.167   2.720 138.937  -0.847  -3.128 132.938

 ******    1 imaginary frequencies (negative Signs) ******

                      1                      2                      3
                      A                      A                      A
 Frequencies --   -614.1803                53.2749                75.8371
 Red. masses --      1.9003                 5.9002                 4.8745
 Frc consts  --      0.4223                 0.0099                 0.0165
 IR Inten    --     53.3188                 3.0730                 2.1110

                      4                      5                      6
                      A                      A                      A
 Frequencies --     92.1437               118.4400               138.4539
 Red. masses --      6.0598                 5.7067                 6.8600
 Frc consts  --      0.0303                 0.0472                 0.0775
 IR Inten    --      1.2488                 3.2991                 6.6522

                      7                      8                      9
                      A                      A                      A
 Frequencies --    147.5560               198.2477               222.1124
 Red. masses --      5.3169                 5.1309                 3.6741
 Frc consts  --      0.0682                 0.1188                 0.1068
 IR Inten    --      1.4280                 5.4689                10.1463

                     10                     11                     12
                      A                      A                      A
 Frequencies --    237.6394               250.4725               257.1934
 Red. masses --      3.3751                 3.7901                 4.6332
 Frc consts  --      0.1123                 0.1401                 0.1806
 IR Inten    --     11.9777                24.8795                29.5665

                     13                     14                     15
                      A                      A                      A
 Frequencies --    272.3126               321.4296               330.4303
 Red. masses --      6.0494                 2.8148                 4.1500
 Frc consts  --      0.2643                 0.1713                 0.2670
 IR Inten    --     13.0836                33.6390                32.1322

                     16                     17                     18
                      A                      A                      A
 Frequencies --    354.4341               365.5523               388.1221
 Red. masses --      2.0547                 1.9371                 1.3144
 Frc consts  --      0.1521                 0.1525                 0.1167
 IR Inten    --     47.7618                41.3795                97.6204

                     19                     20                     21
                      A                      A                      A
 Frequencies --    406.8947               414.0531               451.1643
 Red. masses --      1.2141                 4.0791                 1.8286
 Frc consts  --      0.1184                 0.4120                 0.2193
 IR Inten    --     55.6442                33.4123                13.4010

                     22                     23                     24
                      A                      A                      A
 Frequencies --    456.9520               460.6647               487.1121
 Red. masses --      1.7055                 1.4361                 5.0303
 Frc consts  --      0.2098                 0.1796                 0.7032
 IR Inten    --    130.3216               175.8716               150.1493

                     25                     26                     27
                      A                      A                      A
 Frequencies --    502.2526               549.0618               576.1654
 Red. masses --      3.9908                 4.6568                 3.3635
 Frc consts  --      0.5931                 0.8271                 0.6579
 IR Inten    --     91.2540                84.8281                20.9445

                     28                     29                     30
                      A                      A                      A
 Frequencies --    611.3936               622.4754               678.4989
 Red. masses --      2.3542                 1.2483                 5.3084
 Frc consts  --      0.5185                 0.2850                 1.4398
 IR Inten    --     57.8448                45.3572                43.4870

                     31                     32                     33
                      A                      A                      A
 Frequencies --    739.6289               777.4793               837.7735
 Red. masses --      1.2371                 4.6165                 1.1077
 Frc consts  --      0.3987                 1.6441                 0.4581
 IR Inten    --    122.6984                95.1920                86.8127

                     34                     35                     36
                      A                      A                      A
 Frequencies --    884.7394               933.7598               968.2943
 Red. masses --      2.2633                 2.4690                 1.5803
 Frc consts  --      1.0438                 1.2683                 0.8730
 IR Inten    --     38.8765                20.4335               278.9202

                     37                     38                     39
                      A                      A                      A
 Frequencies --    990.5708              1016.7411              1056.5105
 Red. masses --      5.3694                 3.4072                 3.4694
 Frc consts  --      3.1042                 2.0753                 2.2816
 IR Inten    --     58.1634                67.1291                 5.1571

                     40                     41                     42
                      A                      A                      A
 Frequencies --   1070.0163              1073.9635              1115.5784
 Red. masses --      2.7622                 2.2437                 3.3351
 Frc consts  --      1.8633                 1.5248                 2.4455
 IR Inten    --     78.6706                27.7020               109.9888

                     43                     44                     45
                      A                      A                      A
 Frequencies --   1119.4750              1130.0921              1140.1660
 Red. masses --      3.7758                 2.9382                 2.8563
 Frc consts  --      2.7880                 2.2109                 2.1877
 IR Inten    --    155.9941                 3.8076                 5.4485

                     46                     47                     48
                      A                      A                      A
 Frequencies --   1172.0305              1207.8089              1225.6594
 Red. masses --      1.2583                 1.2818                 1.2993
 Frc consts  --      1.0184                 1.1017                 1.1500
 IR Inten    --     56.5428                30.9511                59.3657

                     49                     50                     51
                      A                      A                      A
 Frequencies --   1243.9230              1257.2815              1282.3435
 Red. masses --      1.2695                 1.2628                 1.1776
 Frc consts  --      1.1574                 1.1761                 1.1409
 IR Inten    --     21.1470                17.9367                42.0783

                     52                     53                     54
                      A                      A                      A
 Frequencies --   1285.1550              1341.4046              1352.6739
 Red. masses --      1.2512                 1.4053                 1.2113
 Frc consts  --      1.2175                 1.4899                 1.3058
 IR Inten    --     16.0239                37.1348               108.2224

                     55                     56                     57
                      A                      A                      A
 Frequencies --   1372.9745              1380.3764              1409.4208
 Red. masses --      1.2568                 1.2660                 1.1769
 Frc consts  --      1.3958                 1.4212                 1.3774
 IR Inten    --     43.2477                18.6740               184.8428

                     58                     59                     60
                      A                      A                      A
 Frequencies --   1411.5007              1419.2447              1432.3790
 Red. masses --      1.3275                 1.2242                 1.2781
 Frc consts  --      1.5583                 1.4528                 1.5450
 IR Inten    --     10.6627                62.8871                36.2788

                     61                     62                     63
                      A                      A                      A
 Frequencies --   1437.5441              1448.1538              1453.8417
 Red. masses --      1.4388                 1.4500                 1.6983
 Frc consts  --      1.7518                 1.7916                 2.1149
 IR Inten    --     25.4229                47.5632                60.8716

                     64                     65                     66
                      A                      A                      A
 Frequencies --   1523.3164              1551.6228              1590.4340
 Red. masses --      1.0843                 1.7853                 1.3519
 Frc consts  --      1.4825                 2.5324                 2.0147
 IR Inten    --      2.6071               929.2782               652.6624

                     67                     68                     69
                      A                      A                      A
 Frequencies --   1666.3247              1740.6145              1872.6546
 Red. masses --      1.0617                 1.0791                 1.0288
 Frc consts  --      1.7369                 1.9263                 2.1257
 IR Inten    --     76.9992               692.0141                81.3525

                     70                     71                     72
                      A                      A                      A
 Frequencies --   1966.5778              2140.2665              2964.1156
 Red. masses --      1.0774                 1.0828                 1.0866
 Frc consts  --      2.4550                 2.9224                 5.6250
 IR Inten    --   2947.5359              2129.6867               116.3913

                     73                     74                     75
                      A                      A                      A
 Frequencies --   2969.4379              2996.1174              3015.3152
 Red. masses --      1.0815                 1.0815                 1.0854
 Frc consts  --      5.6185                 5.7202                 5.8144
 IR Inten    --     20.1200                10.3177                77.8090

                     76                     77                     78
                      A                      A                      A
 Frequencies --   3074.3774              3091.0182              3138.2414
 Red. masses --      1.0612                 1.0862                 1.1062
 Frc consts  --      5.9097                 6.1146                 6.4191
 IR Inten    --     20.4817                25.2262                14.5867

                     79                     80                     81
                      A                      A                      A
 Frequencies --   3498.7893              3700.0911              3722.2811
 Red. masses --      1.0622                 1.0657                 1.0655
 Frc consts  --      7.6608                 8.5962                 8.6979
 IR Inten    --    323.5771                10.2677                32.8799

                     82                     83                     84
                      A                      A                      A
 Frequencies --   3728.1890              3742.0927              3785.8589
 Red. masses --      1.0657                 1.0663                 1.0650
 Frc consts  --      8.7274                 8.7976                 8.9937
 IR Inten    --     30.0805                26.6574                38.2360

 - Thermochemistry -
 -------------------
 Temperature   298.150 Kelvin.  Pressure   1.00000 Atm.
 Atom     1 has atomic number  6 and mass  12.00000

 Molecular mass:   216.08452 amu.
 Principal axes and moments of inertia in atomic units:
                           1         2         3
     Eigenvalues --  2280.031153451.769275079.54504
           X            0.99986   0.01675  -0.00129
           Y           -0.01675   0.99985   0.00417
           Z            0.00136  -0.00415   0.99999
 This molecule is an asymmetric top.
 Rotational symmetry number  1.
 Warning -- assumption of classical behavior for rotation
           may cause significant error
 Rotational temperatures (Kelvin)      0.03799     0.02509     0.01705
 Rotational constants (GHZ):           0.79154     0.52285     0.35530
    1 imaginary frequencies ignored.
 Zero-point vibrational energy     637050.8 (Joules/Mol)
                                  152.25880 (Kcal/Mol)
 Warning -- explicit consideration of  27 degrees of freedom as
           vibrations may cause significant error
 Vibrational temperatures:     76.65   109.11   132.57   170.41   199.20
          (Kelvin)            212.30   285.23   319.57   341.91   360.37
                              370.04   391.80   462.46   475.41   509.95
                              525.95   558.42   585.43   595.73   649.12
                              657.45   662.79   700.84   722.63   789.98
                              828.97   879.66   895.60   976.21  1064.16
                             1118.62  1205.37  1272.94  1343.47  1393.16
                             1425.21  1462.86  1520.08  1539.51  1545.19
                             1605.07  1610.67  1625.95  1640.44  1686.29
                             1737.77  1763.45  1789.73  1808.95  1845.00
                             1849.05  1929.98  1946.19  1975.40  1986.05
                             2027.84  2030.83  2041.97  2060.87  2068.30
                             2083.57  2091.75  2191.71  2232.44  2288.28
                             2397.47  2504.35  2694.33  2829.46  3079.36
                             4264.70  4272.35  4310.74  4338.36  4423.34
                             4447.28  4515.22  5033.97  5323.60  5355.53
                             5364.03  5384.03  5447.00

 Zero-point correction=                           0.242640 (Hartree/Particle)
 Thermal correction to Energy=                    0.258119
 Thermal correction to Enthalpy=                  0.259063
 Thermal correction to Gibbs Free Energy=         0.201269
 Sum of electronic and zero-point Energies=           -839.729918
 Sum of electronic and thermal Energies=              -839.714439
 Sum of electronic and thermal Enthalpies=            -839.713495
 Sum of electronic and thermal Free Energies=         -839.771289

                     E (Thermal)             CV                S
                      KCal/Mol        Cal/Mol-Kelvin    Cal/Mol-Kelvin
 Total                  161.972             59.539            121.637
 Electronic               0.000              0.000              0.000
 Translational            0.889              2.981             42.015
 Rotational               0.889              2.981             32.058
 Vibrational            160.195             53.577             47.564
 Vibration     1          0.596              1.976              4.692
 Vibration     2          0.599              1.965              3.996
 Vibration     3          0.602              1.955              3.614
 Vibration     4          0.609              1.934              3.126
 Vibration     5          0.614              1.915              2.825
 Vibration     6          0.617              1.905              2.704
 Vibration     7          0.637              1.842              2.149
 Vibration     8          0.648              1.807              1.942
 Vibration     9          0.656              1.783              1.820
 Vibration    10          0.663              1.762              1.727
 Vibration    11          0.667              1.751              1.681
 Vibration    12          0.675              1.724              1.581
 Vibration    13          0.707              1.632              1.303
 Vibration    14          0.713              1.615              1.258
 Vibration    15          0.730              1.566              1.146
 Vibration    16          0.739              1.543              1.098
 Vibration    17          0.756              1.496              1.007
 Vibration    18          0.772              1.455              0.938
 Vibration    19          0.778              1.440              0.912
 Vibration    20          0.810              1.358              0.792
 Vibration    21          0.815              1.346              0.775
 Vibration    22          0.818              1.337              0.764
 Vibration    23          0.843              1.279              0.691
 Vibration    24          0.858              1.245              0.653
 Vibration    25          0.904              1.142              0.546
 Vibration    26          0.933              1.083              0.493
 Vibration    27          0.971              1.008              0.430

 Optimization completed.
    -- Stationary point found.
 Normal termination of Gaussian 09 at Sat Jun  4 20:39:39 2016.
