 Gaussian 09, Revision D.01,
 Gaussian 09:  ES64L-G09RevD.01 24-Apr-2013

 ----------------------------------------------------------------------
 # opt=(calcfc,ts,noeigentest,maxcycle=1000,cartesian) freq B3LYP/6-31G
 (d)
 ----------------------------------------------------------------------

 ------------------------
 Glo_A_ch2_GS_b3lyp_631Gd
 ------------------------
 Symbolic Z-matrix:
 Charge =  0 Multiplicity = 1

 SCF Done:  E(RB3LYP) =  -839.867261349     A.U. after   14 cycles
 SCF Done:  E(RB3LYP) =  -839.889054006     A.U. after   12 cycles
 SCF Done:  E(RB3LYP) =  -839.906961088     A.U. after   12 cycles
 SCF Done:  E(RB3LYP) =  -839.919322133     A.U. after   12 cycles
 SCF Done:  E(RB3LYP) =  -839.930135443     A.U. after   12 cycles
 SCF Done:  E(RB3LYP) =  -839.936947147     A.U. after   12 cycles
 SCF Done:  E(RB3LYP) =  -839.942450564     A.U. after   11 cycles
 SCF Done:  E(RB3LYP) =  -839.946194309     A.U. after   11 cycles
 SCF Done:  E(RB3LYP) =  -839.948571685     A.U. after   11 cycles
 SCF Done:  E(RB3LYP) =  -839.951556508     A.U. after   12 cycles
 SCF Done:  E(RB3LYP) =  -839.963778213     A.U. after    9 cycles
 SCF Done:  E(RB3LYP) =  -839.963779072     A.U. after    7 cycles
 SCF Done:  E(RB3LYP) =  -839.963778740     A.U. after    8 cycles
 SCF Done:  E(RB3LYP) =  -839.963778903     A.U. after    7 cycles
 SCF Done:  E(RB3LYP) =  -839.963778423     A.U. after    8 cycles
 SCF Done:  E(RB3LYP) =  -839.963778514     A.U. after    7 cycles
 SCF Done:  E(RB3LYP) =  -839.963779617     A.U. after    9 cycles
 SCF Done:  E(RB3LYP) =  -839.963779758     A.U. after    8 cycles
 SCF Done:  E(RB3LYP) =  -839.963779358     A.U. after    7 cycles
 Optimization completed.
    -- Stationary point found.
 Normal termination of Gaussian 09 at Sat Jan  7 16:22:08 2017.

 --------------------------------------------------------------------
 #N Geom=AllCheck Guess=TCheck SCRF=Check GenChk RB3LYP/6-31G(d) Freq
 --------------------------------------------------------------------

 Structure from the checkpoint file:  "/home/iawad/Gau-13563.chk"
 ------------------------
 Glo_A_ch2_GS_b3lyp_631Gd
 ------------------------
 Charge =  0 Multiplicity = 1

                         Standard orientation:
 ---------------------------------------------------------------------
 Center     Atomic      Atomic             Coordinates (Angstroms)
 Number     Number       Type             X           Y           Z
 ---------------------------------------------------------------------
      1          6           0       -1.720195    0.466715   -0.503090
      2          8           0       -1.061688    0.824414    0.901724
      3          6           0       -1.598733   -1.042649   -0.710127
      4          6           0       -0.123494   -1.467131   -0.618462
      5          6           0        0.468584   -1.134625    0.771629
      6          6           0        0.315252    0.339699    1.181204
      7          1           0       -1.964311   -1.248387   -1.726006
      8          1           0        1.542669   -1.335104    0.750509
      9          1           0        0.380154    0.361022    2.272088
     10          1           0       -0.055109   -2.551478   -0.747448
     11          8           0       -2.338654   -1.789056    0.254508
     12          8           0        0.592245   -0.856074   -1.696593
     13          8           0       -0.063801   -2.009948    1.754848
     14          1           0        0.166210    0.022284   -1.856119
     15          1           0       -3.249857   -1.455966    0.275923
     16          1           0       -1.031822   -2.002222    1.645059
     17          6           0        1.389101    1.307097    0.627157
     18          8           0        2.666508    0.900895    1.056923
     19          1           0        1.193244    2.307603    1.029381
     20          1           0        1.325411    1.380554   -0.464000
     21          1           0        3.045921    0.340070    0.341931
     22          8           0       -1.162427    1.192150   -1.465800
     23          1           0       -1.129117    2.404360   -0.866732
     24          1           0       -2.756930    0.748773   -0.232306
     25          1           0       -1.070864    2.007637    0.732234
     26          8           0       -1.078884    3.063579    0.047310
     27          1           0       -1.910602    3.557355    0.137778
     28          8           0        3.317077   -0.630909   -1.157493
     29          1           0        2.402194   -0.779047   -1.489735
     30          1           0        3.766708   -0.132498   -1.855833
 ---------------------------------------------------------------------

 SCF Done:  E(RB3LYP) =  -839.963779358     A.U. after    1 cycles

 The electronic state is 1-A.
 Alpha  occ. eigenvalues --  -19.20865 -19.18675 -19.18574 -19.16098 -19.14487
 Alpha  occ. eigenvalues --  -19.13105 -19.13067 -19.11829 -10.30960 -10.26339
 Alpha  occ. eigenvalues --  -10.25148 -10.24643 -10.23646 -10.22497  -1.09052
 Alpha  occ. eigenvalues --   -1.05899  -1.03441  -1.02636  -1.00982  -1.00551
 Alpha  occ. eigenvalues --   -0.99451  -0.99152  -0.78211  -0.76565  -0.68953
 Alpha  occ. eigenvalues --   -0.65888  -0.63989  -0.58664  -0.56708  -0.55455
 Alpha  occ. eigenvalues --   -0.54405  -0.52935  -0.51963  -0.50207  -0.49006
 Alpha  occ. eigenvalues --   -0.47911  -0.47265  -0.45400  -0.44921  -0.43077
 Alpha  occ. eigenvalues --   -0.42671  -0.41463  -0.40515  -0.39656  -0.38560
 Alpha  occ. eigenvalues --   -0.38127  -0.36422  -0.35351  -0.33794  -0.33118
 Alpha  occ. eigenvalues --   -0.32088  -0.30972  -0.29600  -0.29100  -0.28276
 Alpha  occ. eigenvalues --   -0.26784  -0.25956  -0.24520
 Alpha virt. eigenvalues --    0.03447   0.04280   0.05413   0.06703   0.09468
 Alpha virt. eigenvalues --    0.11557   0.12163   0.12398   0.13325   0.15679
 Alpha virt. eigenvalues --    0.16117   0.16690   0.17712   0.18679   0.19805

 Mulliken charges:
               1
     1  C    0.294082
     2  O   -0.616896
     3  C    0.079086
     4  C    0.099499
     5  C    0.094813
     6  C    0.096668
     7  H    0.163124
     8  H    0.171207
     9  H    0.179932
    10  H    0.168221
    11  O   -0.635694
    12  O   -0.687141
    13  O   -0.650412
    14  H    0.443738
    15  H    0.406317
    16  H    0.418936
    17  C   -0.075344
    18  O   -0.652675
    19  H    0.151750
    20  H    0.120828
    21  H    0.441369
    22  O   -0.670306
    23  H    0.464754
    24  H    0.106330
    25  H    0.477516
    26  O   -0.814997
    27  H    0.410847
    28  O   -0.820158
    29  H    0.438681
    30  H    0.395924
 Sum of Mulliken charges =   0.00000

 Dipole moment (field-independent basis, Debye):
    X=             -5.4507    Y=              2.4521    Z=             -2.0499  Tot=              6.3186
 Quadrupole moment (field-independent basis, Debye-Ang):
   XX=            -73.9348   YY=            -85.2462   ZZ=            -88.5406
   XY=             -2.7002   XZ=             -9.9313   YZ=              3.3066

  Exact polarizability: 103.999  -1.321  97.755  -0.555  -0.445  85.889
 Approx polarizability: 138.638  -2.421 132.158  -2.715  -5.198 133.115

 ******    1 imaginary frequencies (negative Signs) ******

                      1                      2                      3
                      A                      A                      A
 Frequencies --  -1296.5131                52.0139                88.3731
 Red. masses --      1.1419                 5.2384                 6.4393
 Frc consts  --      1.1309                 0.0084                 0.0296
 IR Inten    --    248.8631                 5.0813                 1.8086

                      4                      5                      6
                      A                      A                      A
 Frequencies --    114.5638               139.5968               148.1760
 Red. masses --      6.3857                 5.7826                 3.8422
 Frc consts  --      0.0494                 0.0664                 0.0497
 IR Inten    --      0.1072                 1.8371                 5.2163

                      7                      8                      9
                      A                      A                      A
 Frequencies --    166.2627               207.3413               218.4499
 Red. masses --      5.4528                 5.0329                 5.4801
 Frc consts  --      0.0888                 0.1275                 0.1541
 IR Inten    --      3.5361                 2.4545                 0.3851

                     10                     11                     12
                      A                      A                      A
 Frequencies --    246.3999               252.4607               255.1475
 Red. masses --      3.3241                 1.1460                 4.4355
 Frc consts  --      0.1189                 0.0430                 0.1701
 IR Inten    --     19.5819                99.8930                 5.1718

                     13                     14                     15
                      A                      A                      A
 Frequencies --    261.4060               272.3750               284.9921
 Red. masses --      3.9827                 1.8114                 3.5313
 Frc consts  --      0.1603                 0.0792                 0.1690
 IR Inten    --     32.8642                59.7830                36.1950

                     16                     17                     18
                      A                      A                      A
 Frequencies --    337.6975               378.7181               393.3367
 Red. masses --      4.6232                 3.9225                 5.5538
 Frc consts  --      0.3106                 0.3315                 0.5063
 IR Inten    --     13.4786                36.0170                 5.6840

                     19                     20                     21
                      A                      A                      A
 Frequencies --    402.1072               450.1396               465.9231
 Red. masses --      3.9179                 1.3778                 3.8318
 Frc consts  --      0.3732                 0.1645                 0.4901
 IR Inten    --     23.8605                38.3539                14.5512

                     22                     23                     24
                      A                      A                      A
 Frequencies --    507.3194               532.7947               556.5373
 Red. masses --      3.5509                 2.5020                 1.8611
 Frc consts  --      0.5385                 0.4185                 0.3396
 IR Inten    --     14.4529                36.4876                18.3877

                     25                     26                     27
                      A                      A                      A
 Frequencies --    565.0454               570.3184               589.7297
 Red. masses --      2.2082                 1.7863                 3.3470
 Frc consts  --      0.4154                 0.3423                 0.6858
 IR Inten    --    108.1078               158.7386                86.8491

                     28                     29                     30
                      A                      A                      A
 Frequencies --    603.0848               655.0325               688.7045
 Red. masses --      5.6826                 1.2923                 1.2186
 Frc consts  --      1.2177                 0.3267                 0.3405
 IR Inten    --     17.9776                59.2635               127.1448

                     31                     32                     33
                      A                      A                      A
 Frequencies --    697.9014               716.8730               774.2217
 Red. masses --      3.9891                 2.8850                 2.7240
 Frc consts  --      1.1448                 0.8735                 0.9620
 IR Inten    --     61.9349                96.2796                12.0556

                     34                     35                     36
                      A                      A                      A
 Frequencies --    798.8763               820.0071               872.6538
 Red. masses --      1.1665                 1.0700                 2.8664
 Frc consts  --      0.4386                 0.4239                 1.2861
 IR Inten    --    227.8354               121.5478                60.8068

                     37                     38                     39
                      A                      A                      A
 Frequencies --    921.7857               971.8709              1013.4028
 Red. masses --      3.4603                 3.3721                 2.4675
 Frc consts  --      1.7323                 1.8766                 1.4930
 IR Inten    --    157.0886                32.2597                21.0316

                     40                     41                     42
                      A                      A                      A
 Frequencies --   1068.0909              1078.5045              1081.5915
 Red. masses --      3.2686                 3.0418                 3.8522
 Frc consts  --      2.1970                 2.0846                 2.6551
 IR Inten    --     21.8057                67.9520               154.3774

                     43                     44                     45
                      A                      A                      A
 Frequencies --   1103.1429              1115.6013              1123.0178
 Red. masses --      3.1340                 5.4329                 3.4357
 Frc consts  --      2.2470                 3.9838                 2.5530
 IR Inten    --     10.4803               157.7246                80.9679

                     46                     47                     48
                      A                      A                      A
 Frequencies --   1141.4323              1207.8431              1250.6003
 Red. masses --      1.9238                 1.2197                 1.1495
 Frc consts  --      1.4768                 1.0484                 1.0592
 IR Inten    --      2.8692               169.3279                29.6228

                     49                     50                     51
                      A                      A                      A
 Frequencies --   1255.8013              1268.4921              1286.2401
 Red. masses --      1.1790                 2.0684                 1.3089
 Frc consts  --      1.0955                 1.9609                 1.2758
 IR Inten    --   1750.6127                92.4097               189.0431

                     52                     53                     54
                      A                      A                      A
 Frequencies --   1323.8041              1330.9637              1344.1359
 Red. masses --      1.3485                 1.2767                 1.1969
 Frc consts  --      1.3924                 1.3326                 1.2741
 IR Inten    --     36.9685                13.8107                 5.6779

                     55                     56                     57
                      A                      A                      A
 Frequencies --   1362.1624              1374.1808              1386.5510
 Red. masses --      1.2740                 1.2377                 1.3472
 Frc consts  --      1.3928                 1.3770                 1.5261
 IR Inten    --     29.0342                24.1250                74.8095

                     58                     59                     60
                      A                      A                      A
 Frequencies --   1410.6985              1429.7838              1437.9535
 Red. masses --      1.4037                 1.5748                 1.3492
 Frc consts  --      1.6458                 1.8968                 1.6437
 IR Inten    --     53.4865                 8.2019                11.3960

                     61                     62                     63
                      A                      A                      A
 Frequencies --   1466.3825              1494.4694              1506.9751
 Red. masses --      1.5070                 1.1745                 1.1636
 Frc consts  --      1.9093                 1.5455                 1.5570
 IR Inten    --     77.2779                86.0330                38.2817

                     64                     65                     66
                      A                      A                      A
 Frequencies --   1537.5576              1550.0009              1588.0143
 Red. masses --      1.1097                 1.1472                 1.0616
 Frc consts  --      1.5457                 1.6238                 1.5773
 IR Inten    --     55.1076                92.5456               248.9207

                     67                     68                     69
                      A                      A                      A
 Frequencies --   1623.4692              1672.6410              1737.8035
 Red. masses --      1.0883                 1.1566                 1.0735
 Frc consts  --      1.6900                 1.9065                 1.9101
 IR Inten    --    119.8791              1163.8122                60.1734

                     70                     71                     72
                      A                      A                      A
 Frequencies --   1957.7672              2926.4999              3041.9358
 Red. masses --      1.0311                 1.0848                 1.0847
 Frc consts  --      2.3284                 5.4741                 5.9136
 IR Inten    --    294.3854               141.5546                31.2590

                     73                     74                     75
                      A                      A                      A
 Frequencies --   3058.8380              3098.0622              3099.2579
 Red. masses --      1.0569                 1.1021                 1.0870
 Frc consts  --      5.8262                 6.2322                 6.1515
 IR Inten    --     44.1141                13.4636                28.9752

                     76                     77                     78
                      A                      A                      A
 Frequencies --   3117.7718              3120.3875              3393.8753
 Red. masses --      1.0929                 1.0865                 1.0683
 Frc consts  --      6.2593                 6.2330                 7.2502
 IR Inten    --     28.8055                 9.8890               311.5458

                     79                     80                     81
                      A                      A                      A
 Frequencies --   3464.0061              3527.3577              3675.4647
 Red. masses --      1.0651                 1.0611                 1.0656
 Frc consts  --      7.5301                 7.7790                 8.4816
 IR Inten    --    328.9951               625.2870               124.1623

                     82                     83                     84
                      A                      A                      A
 Frequencies --   3738.5428              3764.2200              3803.2080
 Red. masses --      1.0662                 1.0653                 1.0697
 Frc consts  --      8.7800                 8.8937                 9.1158
 IR Inten    --     12.8447                44.4562                69.1456

 - Thermochemistry -
 -------------------
 Temperature   298.150 Kelvin.  Pressure   1.00000 Atm.
 Atom     1 has atomic number  6 and mass  12.00000

 Molecular mass:   216.08452 amu.
 Principal axes and moments of inertia in atomic units:
                           1         2         3
     Eigenvalues --  2521.499983030.134623771.40583
           X            0.99966  -0.02031  -0.01660
           Y            0.02056   0.99968   0.01486
           Z            0.01629  -0.01520   0.99975
 This molecule is an asymmetric top.
 Rotational symmetry number  1.
 Warning -- assumption of classical behavior for rotation
           may cause significant error
 Rotational temperatures (Kelvin)      0.03435     0.02858     0.02297
 Rotational constants (GHZ):           0.71574     0.59560     0.47853
    1 imaginary frequencies ignored.
 Zero-point vibrational energy     642016.3 (Joules/Mol)
                                  153.44557 (Kcal/Mol)
 Warning -- explicit consideration of  27 degrees of freedom as
           vibrations may cause significant error
 Vibrational temperatures:     74.84   127.15   164.83   200.85   213.19
          (Kelvin)            239.21   298.32   314.30   354.51   363.23
                              367.10   376.10   391.89   410.04   485.87
                              544.89   565.92   578.54   647.65   670.36
                              729.92   766.57   800.73   812.97   820.56
                              848.49   867.70   942.44   990.89  1004.12
                             1031.42  1113.93  1149.40  1179.81  1255.55
                             1326.24  1398.30  1458.06  1536.74  1551.73
                             1556.17  1587.17  1605.10  1615.77  1642.26
                             1737.81  1799.33  1806.82  1825.07  1850.61
                             1904.66  1914.96  1933.91  1959.85  1977.14
                             1994.94  2029.68  2057.14  2068.89  2109.79
                             2150.21  2168.20  2212.20  2230.10  2284.80
                             2335.81  2406.55  2500.31  2816.79  4210.58
                             4376.66  4400.98  4457.41  4459.14  4485.77
                             4489.54  4883.02  4983.93  5075.07  5288.17
                             5378.92  5415.87  5471.96

 Zero-point correction=                           0.244531 (Hartree/Particle)
 Thermal correction to Energy=                    0.259857
 Thermal correction to Enthalpy=                  0.260801
 Thermal correction to Gibbs Free Energy=         0.203794
 Sum of electronic and zero-point Energies=           -839.719248
 Sum of electronic and thermal Energies=              -839.703923
 Sum of electronic and thermal Enthalpies=            -839.702978
 Sum of electronic and thermal Free Energies=         -839.759986

                     E (Thermal)             CV                S
                      KCal/Mol        Cal/Mol-Kelvin    Cal/Mol-Kelvin
 Total                  163.063             59.751            119.981
 Electronic               0.000              0.000              0.000
 Translational            0.889              2.981             42.015
 Rotational               0.889              2.981             31.733
 Vibrational            161.285             53.790             46.234
 Vibration     1          0.596              1.977              4.739
 Vibration     2          0.601              1.957              3.696
 Vibration     3          0.607              1.937              3.190
 Vibration     4          0.615              1.914              2.809
 Vibration     5          0.618              1.905              2.696
 Vibration     6          0.624              1.884              2.477
 Vibration     7          0.641              1.829              2.067
 Vibration     8          0.646              1.813              1.972
 Vibration     9          0.661              1.769              1.756
 Vibration    10          0.664              1.759              1.713
 Vibration    11          0.666              1.754              1.695
 Vibration    12          0.669              1.743              1.652
 Vibration    13          0.675              1.724              1.581
 Vibration    14          0.683              1.702              1.504
 Vibration    15          0.718              1.600              1.223
 Vibration    16          0.749              1.516              1.044
 Vibration    17          0.761              1.484              0.987
 Vibration    18          0.768              1.466              0.955
 Vibration    19          0.809              1.361              0.795
 Vibration    20          0.823              1.326              0.749
 Vibration    21          0.863              1.234              0.640
 Vibration    22          0.888              1.177              0.581
 Vibration    23          0.912              1.125              0.531
 Vibration    24          0.921              1.107              0.514
 Vibration    25          0.926              1.095              0.504
 Vibration    26          0.947              1.054              0.468
 Vibration    27          0.961              1.025              0.444

 Normal termination of Gaussian 09 at Sat Jan  7 16:26:01 2017.
