 Gaussian 09, Revision D.01,
 Gaussian 09:  ES64L-G09RevD.01 24-Apr-2013

 ----------------------------------------------------------------------
 # opt=(calcfc,ts,noeigentest,maxcycle=1000,cartesian) freq B3LYP/6-31G
 (d)
 ----------------------------------------------------------------------

 ------------------------
 Glo_A_ch2_GS_b3lyp_631Gd
 ------------------------
 Symbolic Z-matrix:
 Charge =  0 Multiplicity = 1

 SCF Done:  E(RB3LYP) =  -839.953191879     A.U. after   14 cycles
 SCF Done:  E(RB3LYP) =  -839.954914010     A.U. after   11 cycles
 SCF Done:  E(RB3LYP) =  -839.956127895     A.U. after   11 cycles
 SCF Done:  E(RB3LYP) =  -839.957267749     A.U. after   11 cycles
 SCF Done:  E(RB3LYP) =  -839.958125178     A.U. after   11 cycles
 SCF Done:  E(RB3LYP) =  -839.959033704     A.U. after   11 cycles
 SCF Done:  E(RB3LYP) =  -839.959735029     A.U. after   11 cycles
 SCF Done:  E(RB3LYP) =  -839.960343426     A.U. after   11 cycles
 SCF Done:  E(RB3LYP) =  -839.960676180     A.U. after   11 cycles
 SCF Done:  E(RB3LYP) =  -839.960932047     A.U. after   11 cycles
 SCF Done:  E(RB3LYP) =  -839.962246191     A.U. after    8 cycles
 SCF Done:  E(RB3LYP) =  -839.962246214     A.U. after    9 cycles
 SCF Done:  E(RB3LYP) =  -839.962246371     A.U. after    8 cycles
 SCF Done:  E(RB3LYP) =  -839.962208798     A.U. after   11 cycles
 SCF Done:  E(RB3LYP) =  -839.962244381     A.U. after   11 cycles
 SCF Done:  E(RB3LYP) =  -839.962245263     A.U. after    8 cycles
 SCF Done:  E(RB3LYP) =  -839.962245997     A.U. after    8 cycles
 SCF Done:  E(RB3LYP) =  -839.962246659     A.U. after    8 cycles
 SCF Done:  E(RB3LYP) =  -839.962247058     A.U. after    7 cycles
 Optimization completed.
    -- Stationary point found.
 Normal termination of Gaussian 09 at Sat Jan  7 15:19:33 2017.

 --------------------------------------------------------------------
 #N Geom=AllCheck Guess=TCheck SCRF=Check GenChk RB3LYP/6-31G(d) Freq
 --------------------------------------------------------------------

 Structure from the checkpoint file:  "glo_1w_Alpha_ts_chair2_B3LYP_6-31Gd.chk"
 ------------------------
 Glo_A_ch2_GS_b3lyp_631Gd
 ------------------------
 Charge =  0 Multiplicity = 1

                         Standard orientation:
 ---------------------------------------------------------------------
 Center     Atomic      Atomic             Coordinates (Angstroms)
 Number     Number       Type             X           Y           Z
 ---------------------------------------------------------------------
      1          6           0       -1.475503   -0.088284   -0.913167
      2          8           0       -1.055619    0.803144    0.377678
      3          6           0       -0.978569   -1.495002   -0.565087
      4          6           0        0.489674   -1.547317   -0.106746
      5          6           0        0.792197   -0.571218    1.048140
      6          6           0        0.333148    0.874297    0.785994
      7          1           0       -1.082272   -2.101093   -1.484424
      8          1           0        1.871002   -0.554612    1.232122
      9          1           0        0.330662    1.374735    1.759349
     10          1           0        0.704830   -2.555256    0.269526
     11          8           0       -1.814797   -2.010364    0.457467
     12          8           0        1.344925   -1.248067   -1.229231
     13          8           0        0.187253   -1.080412    2.225874
     14          1           0        1.220949   -1.945753   -1.892886
     15          1           0       -2.666862   -1.547297    0.287848
     16          1           0       -0.725248   -1.330684    1.980149
     17          6           0        1.183976    1.728644   -0.171462
     18          8           0        2.449432    1.989292    0.393358
     19          1           0        0.667744    2.688204   -0.307048
     20          1           0        1.263019    1.255975   -1.158875
     21          1           0        3.058545    1.273459    0.104977
     22          1           0       -0.895066    0.384116   -1.721270
     23          8           0       -2.782568   -0.012136   -0.978484
     24          1           0       -3.042711    1.319428   -0.689195
     25          1           0       -1.786244    1.733306    0.252259
     26          8           0       -2.812401    2.285940   -0.198184
     27          1           0       -3.454658    2.393664    0.523131
     28          8           0        3.875508   -0.143533   -0.691639
     29          1           0        4.246986    0.195094   -1.520117
     30          1           0        3.085921   -0.660918   -0.956291
 ---------------------------------------------------------------------

 SCF Done:  E(RB3LYP) =  -839.962247058     A.U. after    1 cycles

 The electronic state is 1-A.
 Alpha  occ. eigenvalues --  -19.19694 -19.19231 -19.18183 -19.16052 -19.15866
 Alpha  occ. eigenvalues --  -19.13565 -19.12252 -19.11325 -10.29396 -10.26205
 Alpha  occ. eigenvalues --  -10.25319 -10.24529 -10.24507 -10.22855  -1.08166
 Alpha  occ. eigenvalues --   -1.06339  -1.03941  -1.02520  -1.01783  -1.01175
 Alpha  occ. eigenvalues --   -0.99737  -0.98251  -0.78608  -0.75707  -0.69475
 Alpha  occ. eigenvalues --   -0.65099  -0.63210  -0.59063  -0.55712  -0.55159
 Alpha  occ. eigenvalues --   -0.54583  -0.52992  -0.51568  -0.51071  -0.49839
 Alpha  occ. eigenvalues --   -0.48613  -0.47675  -0.46267  -0.44856  -0.43135
 Alpha  occ. eigenvalues --   -0.42228  -0.41583  -0.40197  -0.40013  -0.38660
 Alpha  occ. eigenvalues --   -0.37061  -0.36490  -0.34415  -0.33573  -0.33365
 Alpha  occ. eigenvalues --   -0.32524  -0.31879  -0.29993  -0.28447  -0.27601
 Alpha  occ. eigenvalues --   -0.26744  -0.25672  -0.24680
 Alpha virt. eigenvalues --    0.02290   0.05190   0.06132   0.07304   0.08731
 Alpha virt. eigenvalues --    0.11201   0.11627   0.11881   0.13140   0.14668
 Alpha virt. eigenvalues --    0.15455   0.16161   0.17507   0.18297   0.18530

 Mulliken charges:
               1
     1  C    0.349474
     2  O   -0.642499
     3  C    0.102023
     4  C    0.069240
     5  C    0.106030
     6  C    0.113279
     7  H    0.124068
     8  H    0.164309
     9  H    0.170907
    10  H    0.164237
    11  O   -0.652125
    12  O   -0.649726
    13  O   -0.648555
    14  H    0.410613
    15  H    0.415178
    16  H    0.418943
    17  C   -0.067595
    18  O   -0.655287
    19  H    0.140497
    20  H    0.128728
    21  H    0.434611
    22  H    0.126810
    23  O   -0.682886
    24  H    0.457832
    25  H    0.478018
    26  O   -0.810603
    27  H    0.413519
    28  O   -0.808181
    29  H    0.397958
    30  H    0.431181
 Sum of Mulliken charges =   0.00000

 Dipole moment (field-independent basis, Debye):
    X=             -0.7494    Y=             -0.9245    Z=             -3.3539  Tot=              3.5588
 Quadrupole moment (field-independent basis, Debye-Ang):
   XX=            -84.4241   YY=            -85.5842   ZZ=            -83.0029
   XY=             -9.8540   XZ=            -17.5243   YZ=              8.3205

  Exact polarizability: 110.506  -1.576  95.421  -0.797   3.808  85.984
 Approx polarizability: 146.842   0.703 128.264   0.955   5.089 130.156

 ******    1 imaginary frequencies (negative Signs) ******

                      1                      2                      3
                      A                      A                      A
 Frequencies --  -1190.6753                36.5405                60.5376
 Red. masses --      1.1829                 5.5072                 5.7962
 Frc consts  --      0.9881                 0.0043                 0.0125
 IR Inten    --    421.3714                 3.5278                 1.4635

                      4                      5                      6
                      A                      A                      A
 Frequencies --     91.9952               111.8721               128.9399
 Red. masses --      6.3211                 6.7785                 5.1243
 Frc consts  --      0.0315                 0.0500                 0.0502
 IR Inten    --      3.1383                 4.9772                 5.3046

                      7                      8                      9
                      A                      A                      A
 Frequencies --    165.5400               177.2963               224.8451
 Red. masses --      5.7625                 5.7281                 3.7454
 Frc consts  --      0.0930                 0.1061                 0.1116
 IR Inten    --      2.3942                 0.8712                 2.1575

                     10                     11                     12
                      A                      A                      A
 Frequencies --    226.4067               247.4372               252.6396
 Red. masses --      4.9778                 3.1801                 1.4186
 Frc consts  --      0.1503                 0.1147                 0.0533
 IR Inten    --      0.2188                39.6710               105.3424

                     13                     14                     15
                      A                      A                      A
 Frequencies --    261.5353               267.3335               302.2489
 Red. masses --      3.7149                 4.9996                 5.5026
 Frc consts  --      0.1497                 0.2105                 0.2962
 IR Inten    --      9.5348                 4.1476                22.6690

                     16                     17                     18
                      A                      A                      A
 Frequencies --    321.3180               347.4929               368.6439
 Red. masses --      1.2312                 2.9138                 1.8727
 Frc consts  --      0.0749                 0.2073                 0.1499
 IR Inten    --     60.7290                71.2494                 4.9160

                     19                     20                     21
                      A                      A                      A
 Frequencies --    393.9868               404.1756               474.7857
 Red. masses --      2.9927                 3.1011                 4.1562
 Frc consts  --      0.2737                 0.2985                 0.5520
 IR Inten    --     43.9696                34.2750                14.4310

                     22                     23                     24
                      A                      A                      A
 Frequencies --    486.5249               516.9893               524.6676
 Red. masses --      3.3371                 2.0302                 1.8774
 Frc consts  --      0.4654                 0.3197                 0.3045
 IR Inten    --     31.1517               121.6992               100.2136

                     25                     26                     27
                      A                      A                      A
 Frequencies --    528.3387               542.6045               569.7384
 Red. masses --      2.4136                 1.5932                 4.1931
 Frc consts  --      0.3970                 0.2764                 0.8019
 IR Inten    --      2.4321                47.2708                27.4963

                     28                     29                     30
                      A                      A                      A
 Frequencies --    603.4492               623.4851               693.3515
 Red. masses --      2.6265                 1.3643                 1.3342
 Frc consts  --      0.5635                 0.3125                 0.3779
 IR Inten    --     48.1564               148.1912                44.3118

                     31                     32                     33
                      A                      A                      A
 Frequencies --    702.4936               714.9246               766.5267
 Red. masses --      2.3227                 1.3152                 3.1916
 Frc consts  --      0.6753                 0.3961                 1.1049
 IR Inten    --    279.7075               211.5981                90.6065

                     34                     35                     36
                      A                      A                      A
 Frequencies --    793.1739               816.7641               887.7792
 Red. masses --      1.0596                 4.0862                 2.9154
 Frc consts  --      0.3928                 1.6061                 1.3538
 IR Inten    --    104.1352                76.9803                21.6688

                     37                     38                     39
                      A                      A                      A
 Frequencies --    912.3347               971.1263              1023.4713
 Red. masses --      3.1725                 3.2280                 2.3745
 Frc consts  --      1.5558                 1.7936                 1.4655
 IR Inten    --      4.5813                42.8013                94.1876

                     40                     41                     42
                      A                      A                      A
 Frequencies --   1062.7023              1067.3287              1085.2793
 Red. masses --      5.4831                 2.2720                 5.5582
 Frc consts  --      3.6484                 1.5250                 3.8571
 IR Inten    --    149.1242               100.8548                93.1403

                     43                     44                     45
                      A                      A                      A
 Frequencies --   1106.2497              1114.5580              1127.2180
 Red. masses --      3.5884                 3.8613                 1.8023
 Frc consts  --      2.5874                 2.8261                 1.3493
 IR Inten    --    114.8269                57.1782                94.0513

                     46                     47                     48
                      A                      A                      A
 Frequencies --   1146.6110              1179.3923              1218.6794
 Red. masses --      4.2717                 1.0781                 1.2105
 Frc consts  --      3.3089                 0.8836                 1.0593
 IR Inten    --     35.0513              1350.7945                26.2565

                     49                     50                     51
                      A                      A                      A
 Frequencies --   1245.2733              1258.9349              1303.9516
 Red. masses --      1.2368                 1.1010                 1.7344
 Frc consts  --      1.1300                 1.0281                 1.7375
 IR Inten    --     45.5222                10.1432               155.7762

                     52                     53                     54
                      A                      A                      A
 Frequencies --   1318.7221              1326.4662              1340.2494
 Red. masses --      1.2837                 1.1948                 1.1942
 Frc consts  --      1.3153                 1.2386                 1.2639
 IR Inten    --     15.9049                 9.5476                12.1623

                     55                     56                     57
                      A                      A                      A
 Frequencies --   1344.8430              1378.6568              1390.8007
 Red. masses --      1.1968                 1.3705                 1.2784
 Frc consts  --      1.2753                 1.5347                 1.4570
 IR Inten    --     48.7466               115.3308                16.3864

                     58                     59                     60
                      A                      A                      A
 Frequencies --   1413.1121              1420.1733              1430.9212
 Red. masses --      1.4917                 1.2193                 1.3697
 Frc consts  --      1.7550                 1.4489                 1.6524
 IR Inten    --      4.9969               326.6365                35.6981

                     61                     62                     63
                      A                      A                      A
 Frequencies --   1442.4319              1458.1402              1491.6137
 Red. masses --      1.3576                 1.7341                 1.8897
 Frc consts  --      1.6642                 2.1723                 2.4772
 IR Inten    --     10.7948               297.1460               105.2450

                     64                     65                     66
                      A                      A                      A
 Frequencies --   1500.1036              1506.7686              1538.0324
 Red. masses --      1.1987                 1.1831                 1.0854
 Frc consts  --      1.5893                 1.5826                 1.5128
 IR Inten    --     75.0251                48.3898                 5.3426

                     67                     68                     69
                      A                      A                      A
 Frequencies --   1659.1376              1727.4309              1802.9871
 Red. masses --      1.0558                 1.0744                 1.1178
 Frc consts  --      1.7124                 1.8889                 2.1410
 IR Inten    --    407.8498                54.6900              1477.9402

                     70                     71                     72
                      A                      A                      A
 Frequencies --   2043.9958              2954.0481              3010.0989
 Red. masses --      1.0355                 1.0828                 1.0852
 Frc consts  --      2.5491                 5.5670                 5.7934
 IR Inten    --    614.3124                65.3487                60.8853

                     73                     74                     75
                      A                      A                      A
 Frequencies --   3037.2691              3059.6300              3075.8163
 Red. masses --      1.0579                 1.0860                 1.1043
 Frc consts  --      5.7499                 5.9896                 6.1554
 IR Inten    --     57.1916                32.3892                20.9204

                     76                     77                     78
                      A                      A                      A
 Frequencies --   3099.1783              3102.8565              3497.7283
 Red. masses --      1.0896                 1.0873                 1.0665
 Frc consts  --      6.1660                 6.1677                 7.6871
 IR Inten    --     28.4267                22.0282               322.8758

                     79                     80                     81
                      A                      A                      A
 Frequencies --   3519.0955              3586.0326              3623.0449
 Red. masses --      1.0643                 1.0568                 1.0660
 Frc consts  --      7.7654                 8.0069                 8.2444
 IR Inten    --    145.2794               476.9251               118.6871

                     82                     83                     84
                      A                      A                      A
 Frequencies --   3733.9289              3763.7571              3802.6181
 Red. masses --      1.0662                 1.0650                 1.0720
 Frc consts  --      8.7585                 8.8886                 9.1325
 IR Inten    --     24.7669                52.4109                88.3832

 - Thermochemistry -
 -------------------
 Temperature   298.150 Kelvin.  Pressure   1.00000 Atm.
 Atom     1 has atomic number  6 and mass  12.00000

 Molecular mass:   216.08452 amu.
 Principal axes and moments of inertia in atomic units:
                           1         2         3
     Eigenvalues --  2164.511543660.415814447.09884
           X            0.99976  -0.01635  -0.01452
           Y            0.01656   0.99976   0.01415
           Z            0.01429  -0.01438   0.99979
 This molecule is an asymmetric top.
 Rotational symmetry number  1.
 Warning -- assumption of classical behavior for rotation
           may cause significant error
 Rotational temperatures (Kelvin)      0.04002     0.02366     0.01948
 Rotational constants (GHZ):           0.83379     0.49304     0.40582
    1 imaginary frequencies ignored.
 Zero-point vibrational energy     639159.8 (Joules/Mol)
                                  152.76287 (Kcal/Mol)
 Warning -- explicit consideration of  27 degrees of freedom as
           vibrations may cause significant error
 Vibrational temperatures:     52.57    87.10   132.36   160.96   185.52
          (Kelvin)            238.17   255.09   323.50   325.75   356.01
                              363.49   376.29   384.63   434.87   462.30
                              499.96   530.40   566.86   581.52   683.11
                              700.00   743.83   754.88   760.16   780.69
                              819.73   868.23   897.05   997.58  1010.73
                             1028.62  1102.86  1141.20  1175.14  1277.31
                             1312.64  1397.23  1472.55  1528.99  1535.65
                             1561.47  1591.64  1603.60  1621.81  1649.72
                             1696.88  1753.41  1791.67  1811.32  1876.09
                             1897.34  1908.49  1928.32  1934.93  1983.58
                             2001.05  2033.15  2043.31  2058.77  2075.34
                             2097.94  2146.10  2158.31  2167.90  2212.88
                             2387.13  2485.38  2594.09  2940.85  4250.21
                             4330.86  4369.95  4402.12  4425.41  4459.02
                             4464.31  5032.44  5063.19  5159.49  5212.75
                             5372.28  5415.20  5471.11

 Zero-point correction=                           0.243443 (Hartree/Particle)
 Thermal correction to Energy=                    0.259292
 Thermal correction to Enthalpy=                  0.260236
 Thermal correction to Gibbs Free Energy=         0.201326
 Sum of electronic and zero-point Energies=           -839.718804
 Sum of electronic and thermal Energies=              -839.702955
 Sum of electronic and thermal Enthalpies=            -839.702011
 Sum of electronic and thermal Free Energies=         -839.760921

                     E (Thermal)             CV                S
                      KCal/Mol        Cal/Mol-Kelvin    Cal/Mol-Kelvin
 Total                  162.708             60.616            123.987
 Electronic               0.000              0.000              0.000
 Translational            0.889              2.981             42.015
 Rotational               0.889              2.981             31.933
 Vibrational            160.931             54.654             50.040
 Vibration     1          0.594              1.982              5.438
 Vibration     2          0.597              1.973              4.440
 Vibration     3          0.602              1.955              3.617
 Vibration     4          0.607              1.940              3.236
 Vibration     5          0.611              1.924              2.962
 Vibration     6          0.624              1.885              2.486
 Vibration     7          0.628              1.870              2.357
 Vibration     8          0.650              1.803              1.920
 Vibration     9          0.650              1.801              1.907
 Vibration    10          0.661              1.767              1.749
 Vibration    11          0.664              1.758              1.712
 Vibration    12          0.669              1.743              1.652
 Vibration    13          0.672              1.733              1.613
 Vibration    14          0.694              1.669              1.404
 Vibration    15          0.707              1.633              1.303
 Vibration    16          0.725              1.580              1.178
 Vibration    17          0.741              1.537              1.085
 Vibration    18          0.761              1.483              0.985
 Vibration    19          0.769              1.461              0.947
 Vibration    20          0.831              1.306              0.724
 Vibration    21          0.843              1.280              0.693
 Vibration    22          0.872              1.212              0.617
 Vibration    23          0.880              1.195              0.599
 Vibration    24          0.883              1.187              0.591
 Vibration    25          0.898              1.156              0.560
 Vibration    26          0.926              1.097              0.505
 Vibration    27          0.962              1.024              0.444

 Normal termination of Gaussian 09 at Sat Jan  7 15:23:14 2017.
