 Gaussian 09, Revision E.01,
 Gaussian 09:  ES64L-G09RevE.01 30-Nov-2015

 ----------------------------------------------------------------------
 # opt=(calcfc,ts,noeigentest,maxcycle=1000,cartesian) freq b3lyp/6-31g
 (d)
 ----------------------------------------------------------------------

 -------------------------
 glo_2w_Beta_B3LYP_6-31G_d
 -------------------------
 Symbolic Z-matrix:
 Charge =  0 Multiplicity = 1

 SCF Done:  E(RB3LYP) =  -839.961728050     A.U. after   14 cycles
 SCF Done:  E(RB3LYP) =  -839.962056652     A.U. after   11 cycles
 SCF Done:  E(RB3LYP) =  -839.962171847     A.U. after   11 cycles
 SCF Done:  E(RB3LYP) =  -839.962230576     A.U. after   11 cycles
 SCF Done:  E(RB3LYP) =  -839.962251270     A.U. after   11 cycles
 SCF Done:  E(RB3LYP) =  -839.962251727     A.U. after   11 cycles
 SCF Done:  E(RB3LYP) =  -839.962198976     A.U. after   11 cycles
 SCF Done:  E(RB3LYP) =  -839.962197112     A.U. after   11 cycles
 SCF Done:  E(RB3LYP) =  -839.962212537     A.U. after   11 cycles
 SCF Done:  E(RB3LYP) =  -839.962217898     A.U. after   11 cycles
 SCF Done:  E(RB3LYP) =  -839.962254728     A.U. after   11 cycles
 SCF Done:  E(RB3LYP) =  -839.962260265     A.U. after    8 cycles
 SCF Done:  E(RB3LYP) =  -839.962244621     A.U. after   11 cycles
 SCF Done:  E(RB3LYP) =  -839.962251516     A.U. after   10 cycles
 SCF Done:  E(RB3LYP) =  -839.962259975     A.U. after   10 cycles
 SCF Done:  E(RB3LYP) =  -839.962260012     A.U. after    7 cycles
 SCF Done:  E(RB3LYP) =  -839.962255927     A.U. after    9 cycles
 SCF Done:  E(RB3LYP) =  -839.962259958     A.U. after    9 cycles
 SCF Done:  E(RB3LYP) =  -839.962260087     A.U. after    7 cycles
 Optimization completed.
    -- Stationary point found.
 Normal termination of Gaussian 09 at Sat Jan  7 12:06:00 2017.

 --------------------------------------------------------------------
 #N Geom=AllCheck Guess=TCheck SCRF=Check GenChk RB3LYP/6-31G(d) Freq
 --------------------------------------------------------------------

 Structure from the checkpoint file:  "ttt.chk"
 -------------------------
 glo_2w_Beta_B3LYP_6-31G_d
 -------------------------
 Charge =  0 Multiplicity = 1

                         Standard orientation:
 ---------------------------------------------------------------------
 Center     Atomic      Atomic             Coordinates (Angstroms)
 Number     Number       Type             X           Y           Z
 ---------------------------------------------------------------------
      1          6           0       -0.477499   -1.412827   -0.161078
      2          8           0       -0.619401   -0.108491    0.962825
      3          8           0       -1.024670   -1.080884   -1.282831
      4          1           0       -2.310454   -1.107672   -1.175333
      5          1           0       -3.355664   -0.412495    1.932893
      6          1           0       -3.854589   -0.487927   -1.566429
      7          8           0       -3.425703   -1.047347   -0.900285
      8          1           0       -3.337784   -0.423611    0.195013
      9          8           0       -3.020349    0.108671    1.185974
     10          1           0       -1.796892    0.024055    1.143564
     11          6           0        1.311233    0.789851   -0.229725
     12          6           0        0.057334    1.108980    0.603481
     13          1           0       -1.006303   -2.120015    0.495800
     14          1           0        1.044158    0.699517   -1.292318
     15          1           0        0.411635    1.558252    1.543097
     16          8           0        2.300924    1.800962   -0.058665
     17          1           0        1.909289    2.609404   -0.434846
     18          6           0       -0.857924    2.104031   -0.122722
     19          8           0       -0.133972    3.304739   -0.433296
     20          1           0       -1.755828    2.323228    0.468775
     21          1           0       -1.172907    1.677836   -1.078850
     22          1           0       -0.077990    3.831636    0.379667
     23          6           0        1.908178   -0.530178    0.245561
     24          1           0        1.943174   -0.530302    1.346606
     25          6           0        1.031600   -1.703292   -0.202020
     26          1           0        1.265530   -1.898847   -1.257919
     27          8           0        3.206504   -0.739152   -0.290817
     28          1           0        3.653165    0.124095   -0.240550
     29          8           0        1.265091   -2.858909    0.592903
     30          1           0        2.216539   -3.043251    0.533384
 ---------------------------------------------------------------------

 SCF Done:  E(RB3LYP) =  -839.962260087     A.U. after    1 cycles

 The electronic state is 1-A.
 Alpha  occ. eigenvalues --  -19.17513 -19.17069 -19.16398 -19.15221 -19.14720
 Alpha  occ. eigenvalues --  -19.14176 -19.13932 -19.11573 -10.28512 -10.24799
 Alpha  occ. eigenvalues --  -10.24429 -10.23781 -10.23187 -10.23080  -1.05572
 Alpha  occ. eigenvalues --   -1.04238  -1.03380  -1.02052  -1.01350  -1.00663
 Alpha  occ. eigenvalues --   -1.00101  -0.97384  -0.78044  -0.75315  -0.69007
 Alpha  occ. eigenvalues --   -0.63512  -0.62126  -0.56571  -0.55774  -0.54695
 Alpha  occ. eigenvalues --   -0.53910  -0.53392  -0.51855  -0.50263  -0.48658
 Alpha  occ. eigenvalues --   -0.46547  -0.45735  -0.44985  -0.43429  -0.42539
 Alpha  occ. eigenvalues --   -0.41947  -0.41766  -0.40893  -0.38789  -0.36771
 Alpha  occ. eigenvalues --   -0.36179  -0.35797  -0.34904  -0.33585  -0.32955
 Alpha  occ. eigenvalues --   -0.31594  -0.31045  -0.29564  -0.27188  -0.26968
 Alpha  occ. eigenvalues --   -0.26003  -0.25919  -0.25057
 Alpha virt. eigenvalues --    0.03352   0.05293   0.05642   0.08448   0.08821
 Alpha virt. eigenvalues --    0.10140   0.11317   0.12813   0.13792   0.14213
 Alpha virt. eigenvalues --    0.15397   0.16499   0.17031   0.17644   0.19386

 Mulliken charges:
               1
     1  C    0.300717
     2  O   -0.655954
     3  O   -0.617630
     4  H    0.464990
     5  H    0.407631
     6  H    0.400295
     7  O   -0.845101
     8  H    0.460584
     9  O   -0.844486
    10  H    0.481043
    11  C    0.074883
    12  C    0.148060
    13  H    0.138574
    14  H    0.149976
    15  H    0.134073
    16  O   -0.670938
    17  H    0.410573
    18  C   -0.102403
    19  O   -0.621105
    20  H    0.157008
    21  H    0.175819
    22  H    0.401017
    23  C    0.120264
    24  H    0.131166
    25  C    0.133855
    26  H    0.156264
    27  O   -0.663034
    28  H    0.414569
    29  O   -0.647299
    30  H    0.406588
 Sum of Mulliken charges =   0.00000

 Dipole moment (field-independent basis, Debye):
    X=             -1.9026    Y=              3.0933    Z=              1.9353  Tot=              4.1151
 Quadrupole moment (field-independent basis, Debye-Ang):
   XX=            -78.9367   YY=            -82.4368   ZZ=            -81.7774
   XY=             -1.4812   XZ=             -1.4680   YZ=              1.3572

  Exact polarizability: 110.108   0.236 100.140   0.584   1.270  82.612
 Approx polarizability: 138.975   3.250 131.488   1.233   2.110 132.606

 ******    1 imaginary frequencies (negative Signs) ******

                      1                      2                      3
                      A                      A                      A
 Frequencies --  -1340.6120                35.4135                49.1241
 Red. masses --      1.1069                 5.6800                 5.5372
 Frc consts  --      1.1721                 0.0042                 0.0079
 IR Inten    --    233.0082                 0.6454                 0.4522

                      4                      5                      6
                      A                      A                      A
 Frequencies --     80.5529               101.2416               123.9386
 Red. masses --      6.4606                 6.2129                 4.8738
 Frc consts  --      0.0247                 0.0375                 0.0441
 IR Inten    --      1.2598                 0.1806                 3.5089

                      7                      8                      9
                      A                      A                      A
 Frequencies --    126.8325               152.3855               199.4459
 Red. masses --      5.2092                 5.0020                 4.0647
 Frc consts  --      0.0494                 0.0684                 0.0953
 IR Inten    --      0.7589                 1.3969                11.2027

                     10                     11                     12
                      A                      A                      A
 Frequencies --    215.8053               240.7627               272.6022
 Red. masses --      5.9781                 3.8549                 4.1616
 Frc consts  --      0.1640                 0.1317                 0.1822
 IR Inten    --     14.0684                11.1223                 8.9164

                     13                     14                     15
                      A                      A                      A
 Frequencies --    290.0971               308.3682               319.1458
 Red. masses --      4.1150                 1.2805                 2.9217
 Frc consts  --      0.2040                 0.0717                 0.1753
 IR Inten    --      1.6431               115.4832                20.7216

                     16                     17                     18
                      A                      A                      A
 Frequencies --    353.7350               372.8722               397.8716
 Red. masses --      2.2984                 4.3105                 1.7297
 Frc consts  --      0.1694                 0.3531                 0.1613
 IR Inten    --     14.9274                19.2611               192.4445

                     19                     20                     21
                      A                      A                      A
 Frequencies --    422.6587               429.1981               454.8984
 Red. masses --      1.3220                 1.1829                 2.7956
 Frc consts  --      0.1391                 0.1284                 0.3408
 IR Inten    --    237.5863                76.3483                86.6106

                     22                     23                     24
                      A                      A                      A
 Frequencies --    464.1475               486.1705               519.8040
 Red. masses --      6.4244                 3.3655                 3.2627
 Frc consts  --      0.8154                 0.4687                 0.5194
 IR Inten    --     26.5690                50.8946                13.9137

                     25                     26                     27
                      A                      A                      A
 Frequencies --    541.3697               557.5244               575.0538
 Red. masses --      2.2520                 2.2786                 1.3061
 Frc consts  --      0.3889                 0.4173                 0.2545
 IR Inten    --    109.8061                95.7621                68.7211

                     28                     29                     30
                      A                      A                      A
 Frequencies --    579.7400               603.6237               630.5323
 Red. masses --      4.0006                 2.8657                 3.1278
 Frc consts  --      0.7922                 0.6152                 0.7327
 IR Inten    --    136.1905                 4.0260                41.7794

                     31                     32                     33
                      A                      A                      A
 Frequencies --    636.8571               680.7697               742.8035
 Red. masses --      1.8813                 2.4813                 1.1814
 Frc consts  --      0.4496                 0.6775                 0.3841
 IR Inten    --     82.5976               208.0915                18.3594

                     34                     35                     36
                      A                      A                      A
 Frequencies --    785.0646               905.8367               994.7984
 Red. masses --      3.8641                 1.8049                 3.2755
 Frc consts  --      1.4032                 0.8726                 1.9098
 IR Inten    --     59.5890                39.3505               376.7903

                     37                     38                     39
                      A                      A                      A
 Frequencies --   1017.6777              1019.2203              1041.7222
 Red. masses --      3.2656                 3.9004                 4.0255
 Frc consts  --      1.9927                 2.3873                 2.5738
 IR Inten    --    555.9975               140.1387               222.4660

                     40                     41                     42
                      A                      A                      A
 Frequencies --   1056.7988              1083.1461              1102.8430
 Red. masses --      3.6352                 1.9719                 2.3639
 Frc consts  --      2.3920                 1.3630                 1.6940
 IR Inten    --     28.1248               259.2073               336.9466

                     43                     44                     45
                      A                      A                      A
 Frequencies --   1122.2716              1132.7752              1138.5178
 Red. masses --      2.5460                 2.9334                 3.9785
 Frc consts  --      1.8893                 2.2177                 3.0384
 IR Inten    --    683.1639               102.0417                20.3044

                     46                     47                     48
                      A                      A                      A
 Frequencies --   1146.1039              1188.7230              1233.4241
 Red. masses --      1.4572                 1.3672                 1.2992
 Frc consts  --      1.1277                 1.1383                 1.1645
 IR Inten    --   1236.0355                67.5002               168.0347

                     49                     50                     51
                      A                      A                      A
 Frequencies --   1251.4724              1275.0905              1297.9726
 Red. masses --      1.2300                 1.1739                 1.1360
 Frc consts  --      1.1350                 1.1245                 1.1277
 IR Inten    --     37.4954               246.8501                45.9008

                     52                     53                     54
                      A                      A                      A
 Frequencies --   1298.3644              1327.9766              1343.8747
 Red. masses --      1.1174                 1.2898                 1.4100
 Frc consts  --      1.1098                 1.3402                 1.5004
 IR Inten    --   1643.7437                77.5482                46.8679

                     55                     56                     57
                      A                      A                      A
 Frequencies --   1360.7738              1370.1766              1388.9917
 Red. masses --      1.2472                 1.1962                 1.2610
 Frc consts  --      1.3607                 1.3232                 1.4333
 IR Inten    --     32.8338               817.1480                31.3910

                     58                     59                     60
                      A                      A                      A
 Frequencies --   1400.9053              1406.3301              1413.7270
 Red. masses --      1.1885                 1.1545                 1.3672
 Frc consts  --      1.3743                 1.3453                 1.6099
 IR Inten    --    119.2065               168.0772                36.9556

                     61                     62                     63
                      A                      A                      A
 Frequencies --   1424.8669              1429.2558              1445.5433
 Red. masses --      1.4585                 1.3296                 1.5089
 Frc consts  --      1.7446                 1.6003                 1.8577
 IR Inten    --     67.2562                31.3667               155.0416

                     64                     65                     66
                      A                      A                      A
 Frequencies --   1476.2876              1528.2729              1543.0380
 Red. masses --      1.5267                 1.9627                 1.0841
 Frc consts  --      1.9603                 2.7009                 1.5208
 IR Inten    --     55.0094               700.8992                20.6984

                     67                     68                     69
                      A                      A                      A
 Frequencies --   1596.4675              1649.9625              1686.4145
 Red. masses --      1.1443                 1.0604                 1.0727
 Frc consts  --      1.7183                 1.7008                 1.7974
 IR Inten    --    272.1945                55.2802               847.3181

                     70                     71                     72
                      A                      A                      A
 Frequencies --   1691.4234              1840.3681              3003.7622
 Red. masses --      1.1294                 1.0453                 1.0825
 Frc consts  --      1.9037                 2.0859                 5.7543
 IR Inten    --    697.5985                70.8509                16.6160

                     73                     74                     75
                      A                      A                      A
 Frequencies --   3018.6389              3026.5021              3035.5534
 Red. masses --      1.0837                 1.0880                 1.0850
 Frc consts  --      5.8179                 5.8718                 5.8904
 IR Inten    --     19.5911                57.6351                 6.2634

                     76                     77                     78
                      A                      A                      A
 Frequencies --   3043.5744              3058.6506              3135.5557
 Red. masses --      1.0857                 1.0651                 1.1026
 Frc consts  --      5.9258                 5.8711                 6.3870
 IR Inten    --     77.7975                37.4157                17.0420

                     79                     80                     81
                      A                      A                      A
 Frequencies --   3690.9683              3705.1827              3739.4818
 Red. masses --      1.0656                 1.0653                 1.0659
 Frc consts  --      8.5529                 8.6164                 8.7823
 IR Inten    --    102.7537                39.7751                32.0401

                     82                     83                     84
                      A                      A                      A
 Frequencies --   3739.8039              3776.6212              3783.0988
 Red. masses --      1.0664                 1.0651                 1.0652
 Frc consts  --      8.7873                 8.9506                 8.9819
 IR Inten    --     21.5886                42.1848                32.5313

 - Thermochemistry -
 -------------------
 Temperature   298.150 Kelvin.  Pressure   1.00000 Atm.
 Atom     1 has atomic number  6 and mass  12.00000

 Molecular mass:   216.08452 amu.
 Principal axes and moments of inertia in atomic units:
                           1         2         3
     Eigenvalues --  2516.817613259.425014975.17968
           X            1.00000  -0.00218  -0.00111
           Y            0.00218   0.99999   0.00267
           Z            0.00110  -0.00267   1.00000
 This molecule is an asymmetric top.
 Rotational symmetry number  1.
 Warning -- assumption of classical behavior for rotation
           may cause significant error
 Rotational temperatures (Kelvin)      0.03441     0.02657     0.01741
 Rotational constants (GHZ):           0.71707     0.55370     0.36275
    1 imaginary frequencies ignored.
 Zero-point vibrational energy     628872.2 (Joules/Mol)
                                  150.30406 (Kcal/Mol)
 Warning -- explicit consideration of  28 degrees of freedom as
           vibrations may cause significant error
 Vibrational temperatures:     50.95    70.68   115.90   145.66   178.32
          (Kelvin)            182.48   219.25   286.96   310.50   346.40
                              392.21   417.38   443.67   459.18   508.95
                              536.48   572.45   608.11   617.52   654.50
                              667.80   699.49   747.88   778.91   802.15
                              827.37   834.12   868.48   907.19   916.29
                              979.47  1068.73  1129.53  1303.30  1431.29
                             1464.21  1466.43  1498.80  1520.50  1558.40
                             1586.74  1614.70  1629.81  1638.07  1648.99
                             1710.31  1774.62  1800.59  1834.57  1867.49
                             1868.05  1910.66  1933.53  1957.85  1971.38
                             1998.45  2015.59  2023.39  2034.04  2050.06
                             2056.38  2079.81  2124.05  2198.84  2220.08
                             2296.96  2373.93  2426.37  2433.58  2647.88
                             4321.74  4343.14  4354.46  4367.48  4379.02
                             4400.71  4511.36  5310.47  5330.92  5380.27
                             5380.74  5433.71  5443.03

 Zero-point correction=                           0.239525 (Hartree/Particle)
 Thermal correction to Energy=                    0.255420
 Thermal correction to Enthalpy=                  0.256364
 Thermal correction to Gibbs Free Energy=         0.196806
 Sum of electronic and zero-point Energies=           -839.722735
 Sum of electronic and thermal Energies=              -839.706840
 Sum of electronic and thermal Enthalpies=            -839.705896
 Sum of electronic and thermal Free Energies=         -839.765454

                     E (Thermal)             CV                S
                      KCal/Mol        Cal/Mol-Kelvin    Cal/Mol-Kelvin
 Total                  160.279             60.443            125.351
 Electronic               0.000              0.000              0.000
 Translational            0.889              2.981             42.015
 Rotational               0.889              2.981             32.079
 Vibrational            158.501             54.481             51.257
 Vibration     1          0.594              1.982              5.500
 Vibration     2          0.595              1.978              4.852
 Vibration     3          0.600              1.962              3.877
 Vibration     4          0.604              1.948              3.430
 Vibration     5          0.610              1.929              3.038
 Vibration     6          0.611              1.926              2.994
 Vibration     7          0.619              1.900              2.642
 Vibration     8          0.638              1.841              2.138
 Vibration     9          0.645              1.817              1.994
 Vibration    10          0.658              1.778              1.797
 Vibration    11          0.676              1.724              1.580
 Vibration    12          0.686              1.692              1.473
 Vibration    13          0.698              1.658              1.371
 Vibration    14          0.705              1.637              1.314
 Vibration    15          0.730              1.568              1.150
 Vibration    16          0.744              1.528              1.068
 Vibration    17          0.764              1.475              0.971
 Vibration    18          0.785              1.421              0.883
 Vibration    19          0.791              1.407              0.861
 Vibration    20          0.813              1.350              0.781
 Vibration    21          0.822              1.330              0.754
 Vibration    22          0.842              1.281              0.694
 Vibration    23          0.875              1.206              0.610
 Vibration    24          0.896              1.159              0.562
 Vibration    25          0.913              1.123              0.529
 Vibration    26          0.931              1.085              0.495
 Vibration    27          0.936              1.075              0.486
 Vibration    28          0.962              1.024              0.443

 Normal termination of Gaussian 09 at Sat Jan  7 12:13:17 2017.
