 Gaussian 09, Revision E.01,
 Gaussian 09:  ES64L-G09RevE.01 30-Nov-2015

 ----------------------------------------------------------------------
 # opt=(CalcFC,ts,cartesian,Noeigentest,maxcycles=500) freq b3lyp 6-31G
 (d)
 ----------------------------------------------------------------------

 -------------------
 glo_2w_beta_ts_boat
 -------------------
 Symbolic Z-matrix:
 Charge =  0 Multiplicity = 1

 SCF Done:  E(RB3LYP) =  -839.943677100     A.U. after   14 cycles
 SCF Done:  E(RB3LYP) =  -839.953044836     A.U. after   12 cycles
 SCF Done:  E(RB3LYP) =  -839.961565253     A.U. after   12 cycles
 SCF Done:  E(RB3LYP) =  -839.962451823     A.U. after   12 cycles
 SCF Done:  E(RB3LYP) =  -839.963278276     A.U. after   12 cycles
 SCF Done:  E(RB3LYP) =  -839.963983851     A.U. after   12 cycles
 SCF Done:  E(RB3LYP) =  -839.964612949     A.U. after   11 cycles
 SCF Done:  E(RB3LYP) =  -839.964830650     A.U. after   11 cycles
 SCF Done:  E(RB3LYP) =  -839.965174642     A.U. after   11 cycles
 SCF Done:  E(RB3LYP) =  -839.965210079     A.U. after   11 cycles
 SCF Done:  E(RB3LYP) =  -839.965239089     A.U. after   11 cycles
 SCF Done:  E(RB3LYP) =  -839.965457830     A.U. after   11 cycles
 SCF Done:  E(RB3LYP) =  -839.965459704     A.U. after   11 cycles
 SCF Done:  E(RB3LYP) =  -839.965461700     A.U. after   11 cycles
 SCF Done:  E(RB3LYP) =  -839.965489251     A.U. after   11 cycles
 SCF Done:  E(RB3LYP) =  -839.965439166     A.U. after   11 cycles
 SCF Done:  E(RB3LYP) =  -839.965503723     A.U. after   11 cycles
 SCF Done:  E(RB3LYP) =  -839.965506859     A.U. after    9 cycles
 SCF Done:  E(RB3LYP) =  -839.965506998     A.U. after    8 cycles
 Optimization completed.
    -- Stationary point found.
 Normal termination of Gaussian 09 at Sat Jan  7 21:28:06 2017.

 --------------------------------------------------------------------
 #N Geom=AllCheck Guess=TCheck SCRF=Check GenChk RB3LYP/6-31G(d) Freq
 --------------------------------------------------------------------

 Structure from the checkpoint file:  "/scratch/10446939.yak.local/Gau-30349.chk"
 -------------------
 glo_2w_beta_ts_boat
 -------------------
 Charge =  0 Multiplicity = 1

                         Standard orientation:
 ---------------------------------------------------------------------
 Center     Atomic      Atomic             Coordinates (Angstroms)
 Number     Number       Type             X           Y           Z
 ---------------------------------------------------------------------
      1          6           0        0.243303   -1.358457   -0.367207
      2          8           0        0.489766    0.151782    0.455257
      3          1           0        2.911386    1.403063   -0.007438
      4          1           0        3.979398   -2.083205   -0.059323
      5          8           0        3.333816   -1.546899   -0.546163
      6          1           0        3.244074   -0.324721    0.002693
      7          8           0        2.906083    0.592695    0.546174
      8          1           0        1.833027    0.406487    0.603088
      9          6           0       -1.788688    0.913420    0.256431
     10          6           0       -0.314093    1.142649   -0.167152
     11          1           0       -2.059745    1.571376    1.090362
     12          1           0       -0.275083    1.002381   -1.263648
     13          8           0       -2.674961    1.231142   -0.808828
     14          1           0       -2.557918    0.509975   -1.455766
     15          6           0        0.218134    2.540128    0.128297
     16          8           0        1.503233    2.777501   -0.479914
     17          1           0        0.370235    2.669876    1.203947
     18          1           0       -0.509545    3.288369   -0.212250
     19          1           0        1.358491    2.869472   -1.434986
     20          1           0        2.363238   -1.945791   -0.287438
     21          6           0       -1.283632   -1.560799   -0.186126
     22          1           0       -1.417358   -2.571350    0.215627
     23          6           0       -1.958127   -0.543791    0.761369
     24          1           0       -3.035587   -0.749405    0.782455
     25          8           0       -1.860241   -1.452904   -1.509341
     26          1           0       -2.695003   -1.946785   -1.506487
     27          8           0       -1.496942   -0.707061    2.089558
     28          1           0       -0.539330   -0.530697    2.042129
     29          8           0        1.032571   -2.220499    0.142830
     30          1           0        0.461749   -0.974002   -1.383209
 ---------------------------------------------------------------------

 SCF Done:  E(RB3LYP) =  -839.965506998     A.U. after    1 cycles

 The electronic state is 1-A.
 Alpha  occ. eigenvalues --  -19.19352 -19.18298 -19.16965 -19.16062 -19.15238
 Alpha  occ. eigenvalues --  -19.13775 -19.12997 -19.10094 -10.27623 -10.25194
 Alpha  occ. eigenvalues --  -10.24260 -10.23754 -10.23293 -10.23122  -1.06982
 Alpha  occ. eigenvalues --   -1.04733  -1.04308  -1.02168  -1.01546  -1.00892
 Alpha  occ. eigenvalues --   -1.00156  -0.97569  -0.76598  -0.74930  -0.68950
 Alpha  occ. eigenvalues --   -0.64449  -0.60487  -0.57851  -0.57176  -0.54858
 Alpha  occ. eigenvalues --   -0.54484  -0.52548  -0.52402  -0.51495  -0.49438
 Alpha  occ. eigenvalues --   -0.46785  -0.45533  -0.45357  -0.44046  -0.43076
 Alpha  occ. eigenvalues --   -0.41193  -0.40895  -0.39750  -0.38919  -0.37779
 Alpha  occ. eigenvalues --   -0.37181  -0.36959  -0.35983  -0.34213  -0.32574
 Alpha  occ. eigenvalues --   -0.31897  -0.31172  -0.30204  -0.29670  -0.26828
 Alpha  occ. eigenvalues --   -0.25532  -0.23978  -0.23405
 Alpha virt. eigenvalues --    0.03457   0.04845   0.06225   0.07113   0.10050
 Alpha virt. eigenvalues --    0.10680   0.11584   0.12566   0.13788   0.14460
 Alpha virt. eigenvalues --    0.14807   0.16116   0.17146   0.17593   0.18207

 Mulliken charges:
               1
     1  C    0.358596
     2  O   -0.667817
     3  H    0.439208
     4  H    0.408231
     5  O   -0.837896
     6  H    0.464970
     7  O   -0.820837
     8  H    0.475732
     9  C    0.088322
    10  C    0.152660
    11  H    0.145915
    12  H    0.109203
    13  O   -0.652222
    14  H    0.402253
    15  C   -0.092207
    16  O   -0.635291
    17  H    0.170422
    18  H    0.162398
    19  H    0.404165
    20  H    0.455889
    21  C    0.049439
    22  H    0.160666
    23  C    0.106363
    24  H    0.132273
    25  O   -0.646656
    26  H    0.406432
    27  O   -0.640974
    28  H    0.412052
    29  O   -0.625901
    30  H    0.114610
 Sum of Mulliken charges =  -0.00000

 Dipole moment (field-independent basis, Debye):
    X=              1.6598    Y=              1.3597    Z=             -2.4149  Tot=              3.2304
 Quadrupole moment (field-independent basis, Debye-Ang):
   XX=            -76.5963   YY=            -81.8799   ZZ=            -87.4374
   XY=              5.5067   XZ=              3.5263   YZ=             -0.8823

  Exact polarizability: 110.415  -3.065 103.905   1.832  -0.951  81.705
 Approx polarizability: 141.757  -6.349 140.995   5.563  -3.651 127.906

 ******    1 imaginary frequencies (negative Signs) ******

                      1                      2                      3
                      A                      A                      A
 Frequencies --   -637.3039                37.7709                66.2474
 Red. masses --      1.8473                 5.9862                 6.5498
 Frc consts  --      0.4421                 0.0050                 0.0169
 IR Inten    --     76.9788                 1.2048                 2.9160

                      4                      5                      6
                      A                      A                      A
 Frequencies --     80.3614               118.4295               136.0973
 Red. masses --      4.7945                 5.8240                 6.7580
 Frc consts  --      0.0182                 0.0481                 0.0738
 IR Inten    --      0.5752                 5.8951                 4.4773

                      7                      8                      9
                      A                      A                      A
 Frequencies --    176.6703               181.2971               209.3117
 Red. masses --      4.9944                 5.0544                 2.9879
 Frc consts  --      0.0918                 0.0979                 0.0771
 IR Inten    --     32.7654                 4.9067                 7.6110

                     10                     11                     12
                      A                      A                      A
 Frequencies --    217.2022               237.2546               270.6888
 Red. masses --      5.6338                 5.1736                 2.0294
 Frc consts  --      0.1566                 0.1716                 0.0876
 IR Inten    --      0.4093                 6.9672                32.6183

                     13                     14                     15
                      A                      A                      A
 Frequencies --    283.9118               286.4899               338.6254
 Red. masses --      2.7934                 2.4726                 4.8816
 Frc consts  --      0.1327                 0.1196                 0.3298
 IR Inten    --     20.6137                88.5022                52.8124

                     16                     17                     18
                      A                      A                      A
 Frequencies --    360.0610               364.2082               395.2445
 Red. masses --      1.6320                 2.5250                 4.5283
 Frc consts  --      0.1247                 0.1973                 0.4168
 IR Inten    --     54.4417               106.9997                27.0954

                     19                     20                     21
                      A                      A                      A
 Frequencies --    425.3112               445.8996               452.3406
 Red. masses --      3.6593                 2.6802                 1.6641
 Frc consts  --      0.3900                 0.3140                 0.2006
 IR Inten    --      4.3026                86.4466                41.1366

                     22                     23                     24
                      A                      A                      A
 Frequencies --    474.6999               521.3897               536.1666
 Red. masses --      2.6481                 4.0287                 5.5006
 Frc consts  --      0.3516                 0.6453                 0.9317
 IR Inten    --    132.0036                69.5463                 6.3160

                     25                     26                     27
                      A                      A                      A
 Frequencies --    555.8983               570.7597               618.2438
 Red. masses --      2.1549                 1.5525                 2.1683
 Frc consts  --      0.3923                 0.2980                 0.4883
 IR Inten    --     23.7297                60.6290                67.7214

                     28                     29                     30
                      A                      A                      A
 Frequencies --    628.7900               632.8081               643.7318
 Red. masses --      1.1561                 4.7112                 1.7139
 Frc consts  --      0.2693                 1.1115                 0.4185
 IR Inten    --     48.1751                83.0503               139.9787

                     31                     32                     33
                      A                      A                      A
 Frequencies --    673.2118               753.6545               786.2299
 Red. masses --      1.1858                 1.1066                 3.8299
 Frc consts  --      0.3166                 0.3703                 1.3949
 IR Inten    --    162.8999               117.8905                20.2450

                     34                     35                     36
                      A                      A                      A
 Frequencies --    872.8676               890.3609               951.8274
 Red. masses --      3.4179                 2.1642                 1.6735
 Frc consts  --      1.5343                 1.0108                 0.8933
 IR Inten    --     13.2222               166.9775               222.1358

                     37                     38                     39
                      A                      A                      A
 Frequencies --    974.9703              1020.6982              1038.4106
 Red. masses --      2.6569                 5.6413                 5.4964
 Frc consts  --      1.4880                 3.4627                 3.4919
 IR Inten    --     49.2883                54.9983                61.3674

                     40                     41                     42
                      A                      A                      A
 Frequencies --   1058.4415              1087.9851              1089.3113
 Red. masses --      2.2037                 3.2110                 2.5844
 Frc consts  --      1.4546                 2.2394                 1.8068
 IR Inten    --      6.5651                98.8348                87.7911

                     43                     44                     45
                      A                      A                      A
 Frequencies --   1104.4816              1117.5157              1125.1505
 Red. masses --      3.1740                 1.2540                 2.3254
 Frc consts  --      2.2813                 0.9227                 1.7345
 IR Inten    --     99.0022                94.5259                84.1537

                     46                     47                     48
                      A                      A                      A
 Frequencies --   1143.1929              1206.5561              1216.2994
 Red. masses --      2.7387                 1.3594                 1.2367
 Frc consts  --      2.1088                 1.1660                 1.0779
 IR Inten    --     17.8414                 1.3737                11.7743

                     49                     50                     51
                      A                      A                      A
 Frequencies --   1237.6102              1260.0097              1272.5983
 Red. masses --      1.2184                 1.2757                 1.3097
 Frc consts  --      1.0995                 1.1933                 1.2497
 IR Inten    --    117.4805                52.8228                29.2701

                     52                     53                     54
                      A                      A                      A
 Frequencies --   1293.2155              1299.4005              1341.8010
 Red. masses --      1.1821                 1.2642                 1.3478
 Frc consts  --      1.1648                 1.2576                 1.4297
 IR Inten    --    335.8539                10.0945                22.9124

                     55                     56                     57
                      A                      A                      A
 Frequencies --   1357.6363              1383.0655              1388.1946
 Red. masses --      1.2970                 1.3033                 1.2741
 Frc consts  --      1.4085                 1.4688                 1.4466
 IR Inten    --      4.4165                30.9767                 9.4101

                     58                     59                     60
                      A                      A                      A
 Frequencies --   1402.0724              1416.7801              1420.8817
 Red. masses --      1.3174                 1.4615                 1.2528
 Frc consts  --      1.5258                 1.7285                 1.4902
 IR Inten    --     54.0174                71.1700                49.2136

                     61                     62                     63
                      A                      A                      A
 Frequencies --   1433.3532              1457.3349              1468.3649
 Red. masses --      1.4276                 1.2454                 1.2257
 Frc consts  --      1.7281                 1.5583                 1.5570
 IR Inten    --     12.3883               143.3514                82.9313

                     64                     65                     66
                      A                      A                      A
 Frequencies --   1514.6318              1522.3233              1569.3806
 Red. masses --      1.0892                 1.0890                 2.4419
 Frc consts  --      1.4723                 1.4869                 3.5435
 IR Inten    --    335.1174               159.2488               600.0949

                     67                     68                     69
                      A                      A                      A
 Frequencies --   1685.5351              1791.6859              1897.8217
 Red. masses --      1.1812                 1.0668                 1.0396
 Frc consts  --      1.9772                 2.0178                 2.2062
 IR Inten    --    425.9106               530.8898                35.8619

                     70                     71                     72
                      A                      A                      A
 Frequencies --   2036.4660              2124.5408              2927.6503
 Red. masses --      1.0702                 1.0918                 1.0862
 Frc consts  --      2.6149                 2.9034                 5.4854
 IR Inten    --   3771.7634              1883.1002                70.3568

                     73                     74                     75
                      A                      A                      A
 Frequencies --   2947.3128              3053.2528              3061.7415
 Red. masses --      1.0820                 1.0645                 1.0859
 Frc consts  --      5.5380                 5.8470                 5.9977
 IR Inten    --     56.6900                22.9484                34.4220

                     76                     77                     78
                      A                      A                      A
 Frequencies --   3073.3656              3082.3492              3126.2185
 Red. masses --      1.0862                 1.0878                 1.1028
 Frc consts  --      6.0447                 6.0893                 6.3504
 IR Inten    --     41.5213                26.2078                17.4795

                     79                     80                     81
                      A                      A                      A
 Frequencies --   3618.0457              3650.2507              3675.0448
 Red. masses --      1.0628                 1.0656                 1.0643
 Frc consts  --      8.1971                 8.3652                 8.4695
 IR Inten    --    193.8539                77.8846                72.2829

                     82                     83                     84
                      A                      A                      A
 Frequencies --   3742.7924              3751.4943              3781.7707
 Red. masses --      1.0663                 1.0665                 1.0649
 Frc consts  --      8.8004                 8.8436                 8.9733
 IR Inten    --     23.6236                28.2674                47.3400

 - Thermochemistry -
 -------------------
 Temperature   298.150 Kelvin.  Pressure   1.00000 Atm.
 Atom     1 has atomic number  6 and mass  12.00000

 Molecular mass:   216.08452 amu.
 Principal axes and moments of inertia in atomic units:
                           1         2         3
     Eigenvalues --  2447.508623287.354574578.09189
           X            1.00000   0.00135   0.00038
           Y           -0.00135   0.99999   0.00289
           Z           -0.00037  -0.00289   1.00000
 This molecule is an asymmetric top.
 Rotational symmetry number  1.
 Warning -- assumption of classical behavior for rotation
           may cause significant error
 Rotational temperatures (Kelvin)      0.03539     0.02635     0.01892
 Rotational constants (GHZ):           0.73738     0.54899     0.39421
    1 imaginary frequencies ignored.
 Zero-point vibrational energy     636670.9 (Joules/Mol)
                                  152.16801 (Kcal/Mol)
 Warning -- explicit consideration of  26 degrees of freedom as
           vibrations may cause significant error
 Vibrational temperatures:     54.34    95.32   115.62   170.39   195.81
          (Kelvin)            254.19   260.85   301.15   312.51   341.36
                              389.46   408.49   412.19   487.21   518.05
                              524.01   568.67   611.93   641.55   650.82
                              682.99   750.16   771.42   799.81   821.19
                              889.51   904.69   910.47   926.19   968.60
                             1084.34  1131.21  1255.86  1281.03  1369.47
                             1402.76  1468.56  1494.04  1522.86  1565.37
                             1567.27  1589.10  1607.85  1618.84  1644.80
                             1735.96  1749.98  1780.64  1812.87  1830.98
                             1860.65  1869.55  1930.55  1953.33  1989.92
                             1997.30  2017.27  2038.43  2044.33  2062.27
                             2096.78  2112.65  2179.21  2190.28  2257.99
                             2425.11  2577.83  2730.54  2930.02  3056.74
                             4212.23  4240.52  4392.94  4405.16  4421.88
                             4434.81  4497.93  5205.55  5251.89  5287.56
                             5385.04  5397.56  5441.12

 Zero-point correction=                           0.242495 (Hartree/Particle)
 Thermal correction to Energy=                    0.257953
 Thermal correction to Enthalpy=                  0.258897
 Thermal correction to Gibbs Free Energy=         0.200726
 Sum of electronic and zero-point Energies=           -839.723012
 Sum of electronic and thermal Energies=              -839.707554
 Sum of electronic and thermal Enthalpies=            -839.706610
 Sum of electronic and thermal Free Energies=         -839.764781

                     E (Thermal)             CV                S
                      KCal/Mol        Cal/Mol-Kelvin    Cal/Mol-Kelvin
 Total                  161.868             59.466            122.432
 Electronic               0.000              0.000              0.000
 Translational            0.889              2.981             42.015
 Rotational               0.889              2.981             31.977
 Vibrational            160.091             53.505             48.441
 Vibration     1          0.594              1.982              5.373
 Vibration     2          0.598              1.970              4.262
 Vibration     3          0.600              1.962              3.882
 Vibration     4          0.609              1.934              3.126
 Vibration     5          0.614              1.917              2.858
 Vibration     6          0.628              1.871              2.363
 Vibration     7          0.630              1.865              2.315
 Vibration     8          0.642              1.827              2.050
 Vibration     9          0.646              1.815              1.982
 Vibration    10          0.656              1.784              1.823
 Vibration    11          0.674              1.727              1.592
 Vibration    12          0.682              1.703              1.510
 Vibration    13          0.684              1.699              1.495
 Vibration    14          0.719              1.598              1.219
 Vibration    15          0.735              1.555              1.122
 Vibration    16          0.738              1.546              1.104
 Vibration    17          0.762              1.480              0.980
 Vibration    18          0.787              1.415              0.874
 Vibration    19          0.805              1.370              0.808
 Vibration    20          0.811              1.356              0.789
 Vibration    21          0.831              1.306              0.725
 Vibration    22          0.876              1.203              0.607
 Vibration    23          0.891              1.170              0.574
 Vibration    24          0.911              1.127              0.532
 Vibration    25          0.927              1.094              0.503
 Vibration    26          0.978              0.993              0.419

 Optimization completed.
    -- Stationary point found.
 Normal termination of Gaussian 09 at Sat Jan  7 22:01:00 2017.
