 Gaussian 09, Revision D.01,
 Gaussian 09:  ES64L-G09RevD.01 24-Apr-2013

 ------------------------------------------------------
 # opt=(modredundant,MaxCycle=1000) freq B3LYP/6-31G(d)
 ------------------------------------------------------

 -----------------------------------
 glo_2w_alpha_ircr_boat5_B3LYP_631Gd
 -----------------------------------
 Symbolic Z-matrix:
 Charge =  0 Multiplicity = 1

 SCF Done:  E(RB3LYP) =  -839.973614998     A.U. after   14 cycles
 SCF Done:  E(RB3LYP) =  -839.993213653     A.U. after   12 cycles
 SCF Done:  E(RB3LYP) =  -839.997724316     A.U. after   12 cycles
 SCF Done:  E(RB3LYP) =  -839.998631344     A.U. after   11 cycles
 SCF Done:  E(RB3LYP) =  -839.999146850     A.U. after   12 cycles
 SCF Done:  E(RB3LYP) =  -839.999802043     A.U. after   11 cycles
 SCF Done:  E(RB3LYP) =  -839.999989225     A.U. after   11 cycles
 SCF Done:  E(RB3LYP) =  -840.000061256     A.U. after    9 cycles
 SCF Done:  E(RB3LYP) =  -840.000084109     A.U. after    9 cycles
 SCF Done:  E(RB3LYP) =  -840.000102476     A.U. after    9 cycles
 SCF Done:  E(RB3LYP) =  -840.000115873     A.U. after    7 cycles
 SCF Done:  E(RB3LYP) =  -840.000117766     A.U. after    8 cycles
 SCF Done:  E(RB3LYP) =  -840.000119573     A.U. after    7 cycles
 SCF Done:  E(RB3LYP) =  -840.000120787     A.U. after    7 cycles
 SCF Done:  E(RB3LYP) =  -840.000121550     A.U. after    7 cycles
 SCF Done:  E(RB3LYP) =  -840.000122186     A.U. after    7 cycles
 SCF Done:  E(RB3LYP) =  -840.000122534     A.U. after    7 cycles
 SCF Done:  E(RB3LYP) =  -840.000122665     A.U. after    6 cycles
 SCF Done:  E(RB3LYP) =  -840.000122702     A.U. after    6 cycles
 Optimization completed.
    -- Stationary point found.
 Normal termination of Gaussian 09 at Sun Jan 22 20:09:03 2017.

 --------------------------------------------------------------------
 #N Geom=AllCheck Guess=TCheck SCRF=Check GenChk RB3LYP/6-31G(d) Freq
 --------------------------------------------------------------------

 Structure from the checkpoint file:  "/home/iawad/Gau-7779.chk"
 -----------------------------------
 glo_2w_alpha_ircr_boat5_B3LYP_631Gd
 -----------------------------------
 Charge =  0 Multiplicity = 1

                         Standard orientation:
 ---------------------------------------------------------------------
 Center     Atomic      Atomic             Coordinates (Angstroms)
 Number     Number       Type             X           Y           Z
 ---------------------------------------------------------------------
      1          8           0       -0.506214    0.716873   -0.456232
      2          6           0        1.319307   -0.105647    1.034774
      3          6           0        0.333142   -1.606969   -0.823900
      4          6           0        1.583080   -1.244268    0.024390
      5          6           0       -0.861012   -0.657116   -0.589473
      6          6           0        0.652794    1.091142    0.339850
      7          1           0        1.858790   -2.140490    0.596655
      8          1           0        0.273159    1.742177    1.141531
      9          1           0        2.282756    0.254898    1.413462
     10          1           0        0.647103   -1.495556   -1.866791
     11          6           0        1.570305    1.911368   -0.581287
     12          1           0        0.996209    2.758333   -0.987335
     13          1           0        1.903573    1.292221   -1.413438
     14          8           0        2.749902    2.348696    0.084765
     15          1           0        2.493736    2.990756    0.765510
     16          8           0       -0.095234   -2.943366   -0.670384
     17          1           0       -0.707097   -2.937611    0.087010
     18          8           0        2.610654   -0.901412   -0.906955
     19          1           0        3.388393   -0.607168   -0.405518
     20          8           0        0.602983   -0.545134    2.171366
     21          1           0       -0.294926   -0.797292    1.871664
     22          1           0       -1.537037   -0.674960   -1.450424
     23          8           0       -1.539308   -1.126006    0.557146
     24          1           0       -3.689499    0.909796    0.013469
     25          8           0       -2.816885    2.264398   -0.638339
     26          1           0       -2.771216    2.962667    0.032229
     27          1           0       -1.922828    1.851233   -0.638234
     28          8           0       -3.945562    0.022208    0.377298
     29          1           0       -4.520796   -0.373880   -0.294089
     30          1           0       -2.468719   -0.756232    0.558855
 ---------------------------------------------------------------------

 SCF Done:  E(RB3LYP) =  -840.000122702     A.U. after    1 cycles

 The electronic state is 1-A.
 Alpha  occ. eigenvalues --  -19.18360 -19.16883 -19.16281 -19.16139 -19.16066
 Alpha  occ. eigenvalues --  -19.15195 -19.13979 -19.13176 -10.30127 -10.25072
 Alpha  occ. eigenvalues --  -10.23912 -10.23800 -10.23722 -10.23416  -1.08389
 Alpha  occ. eigenvalues --   -1.03281  -1.03093  -1.02733  -1.02359  -1.01398
 Alpha  occ. eigenvalues --   -1.00794  -1.00096  -0.78108  -0.76440  -0.68968
 Alpha  occ. eigenvalues --   -0.65920  -0.63340  -0.58299  -0.55558  -0.54612
 Alpha  occ. eigenvalues --   -0.54221  -0.53451  -0.52044  -0.50842  -0.49645
 Alpha  occ. eigenvalues --   -0.48548  -0.46388  -0.44914  -0.43040  -0.42369
 Alpha  occ. eigenvalues --   -0.41901  -0.41292  -0.40451  -0.39035  -0.38365
 Alpha  occ. eigenvalues --   -0.36389  -0.36332  -0.34960  -0.33372  -0.33026
 Alpha  occ. eigenvalues --   -0.32469  -0.31565  -0.30566  -0.30337  -0.28793
 Alpha  occ. eigenvalues --   -0.26818  -0.26327  -0.24921
 Alpha virt. eigenvalues --    0.03611   0.05085   0.06390   0.07932   0.09486
 Alpha virt. eigenvalues --    0.11018   0.11122   0.12387   0.14186   0.14841
 Alpha virt. eigenvalues --    0.15779   0.16660   0.17159   0.18344   0.19618

 Mulliken charges:
               1
     1  O   -0.549807
     2  C    0.087519
     3  C    0.100149
     4  C    0.101448
     5  C    0.292397
     6  C    0.097032
     7  H    0.149723
     8  H    0.124396
     9  H    0.140204
    10  H    0.170054
    11  C   -0.057501
    12  H    0.125151
    13  H    0.187415
    14  O   -0.613954
    15  H    0.392930
    16  O   -0.632954
    17  H    0.408088
    18  O   -0.633418
    19  H    0.402420
    20  O   -0.664153
    21  H    0.423446
    22  H    0.144521
    23  O   -0.689613
    24  H    0.432713
    25  O   -0.813691
    26  H    0.401820
    27  H    0.439449
    28  O   -0.822740
    29  H    0.402293
    30  H    0.454663
 Sum of Mulliken charges =   0.00000

 Dipole moment (field-independent basis, Debye):
    X=             -1.8988    Y=              3.5438    Z=              0.2104  Tot=              4.0260
 Quadrupole moment (field-independent basis, Debye-Ang):
   XX=            -78.4325   YY=            -80.8313   ZZ=            -91.1517
   XY=              1.7832   XZ=              5.7824   YZ=              3.8753

  Exact polarizability: 103.205   4.747  97.628   2.158   1.566  80.923
 Approx polarizability: 133.150   6.319 128.116   1.007   1.189 122.507

                      1                      2                      3
                      A                      A                      A
 Frequencies --     11.8274                36.5506                42.9004
 Red. masses --      5.6550                 5.3907                 4.7800
 Frc consts  --      0.0005                 0.0042                 0.0052
 IR Inten    --      0.1890                 1.6755                 1.9562

                      4                      5                      6
                      A                      A                      A
 Frequencies --     52.8554                81.7905               142.3108
 Red. masses --      4.5501                 7.0179                 5.4091
 Frc consts  --      0.0075                 0.0277                 0.0645
 IR Inten    --      4.9949                 1.8938                 3.7508

                      7                      8                      9
                      A                      A                      A
 Frequencies --    162.5297               201.3201               218.0819
 Red. masses --      6.0681                 5.9678                 5.2922
 Frc consts  --      0.0944                 0.1425                 0.1483
 IR Inten    --      6.5839                15.8111                 6.1957

                     10                     11                     12
                      A                      A                      A
 Frequencies --    237.6705               247.8144               249.4681
 Red. masses --      3.8687                 4.0375                 1.1347
 Frc consts  --      0.1288                 0.1461                 0.0416
 IR Inten    --      6.9676                 3.7970               124.1137

                     13                     14                     15
                      A                      A                      A
 Frequencies --    266.9655               283.7802               302.2185
 Red. masses --      3.9951                 6.4352                 1.8240
 Frc consts  --      0.1678                 0.3053                 0.0982
 IR Inten    --      4.2393                 7.1541                19.8677

                     16                     17                     18
                      A                      A                      A
 Frequencies --    343.7923               359.2288               361.3738
 Red. masses --      1.6192                 1.1925                 1.4692
 Frc consts  --      0.1128                 0.0907                 0.1130
 IR Inten    --    151.4412                57.1187               197.3333

                     19                     20                     21
                      A                      A                      A
 Frequencies --    372.7881               391.0229               395.4622
 Red. masses --      4.1979                 2.1893                 3.3216
 Frc consts  --      0.3437                 0.1972                 0.3061
 IR Inten    --     10.1152                18.3238                12.7828

                     22                     23                     24
                      A                      A                      A
 Frequencies --    414.4606               450.4434               466.4038
 Red. masses --      1.4785                 2.9886                 2.4171
 Frc consts  --      0.1496                 0.3573                 0.3098
 IR Inten    --     17.9215                46.9832                55.9487

                     25                     26                     27
                      A                      A                      A
 Frequencies --    486.6049               506.5382               520.2755
 Red. masses --      1.8718                 1.1496                 5.6277
 Frc consts  --      0.2611                 0.1738                 0.8975
 IR Inten    --     53.0274                17.3653                12.5566

                     28                     29                     30
                      A                      A                      A
 Frequencies --    578.8199               617.5905               660.4052
 Red. masses --      4.7456                 3.5497                 1.3345
 Frc consts  --      0.9368                 0.7977                 0.3429
 IR Inten    --     12.0156                33.0268                77.1337

                     31                     32                     33
                      A                      A                      A
 Frequencies --    690.2837               701.4315               792.5413
 Red. masses --      1.5944                 1.8368                 2.9285
 Frc consts  --      0.4476                 0.5324                 1.0838
 IR Inten    --    116.1648                57.6447                28.3724

                     34                     35                     36
                      A                      A                      A
 Frequencies --    836.9216               890.8478               916.8672
 Red. masses --      3.2733                 3.0718                 1.0887
 Frc consts  --      1.3509                 1.4363                 0.5392
 IR Inten    --     27.3409                32.4136               164.0327

                     37                     38                     39
                      A                      A                      A
 Frequencies --    952.8894               996.8654              1023.0082
 Red. masses --      3.0133                 3.0519                 2.4963
 Frc consts  --      1.6120                 1.7869                 1.5392
 IR Inten    --     11.1203                69.8235                 5.7241

                     40                     41                     42
                      A                      A                      A
 Frequencies --   1044.2762              1051.1585              1080.8907
 Red. masses --      1.2351                 2.3596                 4.6526
 Frc consts  --      0.7936                 1.5361                 3.2026
 IR Inten    --    173.3995                 9.1524               317.4819

                     43                     44                     45
                      A                      A                      A
 Frequencies --   1093.5293              1096.4718              1113.4836
 Red. masses --      3.4690                 4.2934                 2.7984
 Frc consts  --      2.4441                 3.0412                 2.0442
 IR Inten    --     23.1199                26.6497                13.8256

                     46                     47                     48
                      A                      A                      A
 Frequencies --   1120.4707              1133.3582              1149.2835
 Red. masses --      2.5634                 3.9083                 3.2308
 Frc consts  --      1.8961                 2.9579                 2.5143
 IR Inten    --     14.0056               141.8884               109.3199

                     49                     50                     51
                      A                      A                      A
 Frequencies --   1211.5442              1234.1844              1281.0290
 Red. masses --      1.3083                 1.1639                 1.4050
 Frc consts  --      1.1315                 1.0445                 1.3585
 IR Inten    --     17.2124                39.8272                12.9005

                     52                     53                     54
                      A                      A                      A
 Frequencies --   1305.8340              1326.5518              1339.2714
 Red. masses --      1.3960                 1.1792                 1.2177
 Frc consts  --      1.4025                 1.2226                 1.2869
 IR Inten    --     16.8845                16.7628                41.7350

                     55                     56                     57
                      A                      A                      A
 Frequencies --   1357.0001              1369.5410              1376.4107
 Red. masses --      1.2088                 1.2677                 1.3368
 Frc consts  --      1.3115                 1.4010                 1.4922
 IR Inten    --     24.7256                 0.8845                 2.1317

                     58                     59                     60
                      A                      A                      A
 Frequencies --   1397.9550              1415.4418              1417.5574
 Red. masses --      1.2289                 1.5083                 1.2315
 Frc consts  --      1.4149                 1.7804                 1.4580
 IR Inten    --     25.2260                 5.7579                16.1397

                     61                     62                     63
                      A                      A                      A
 Frequencies --   1445.8968              1447.5172              1467.3148
 Red. masses --      1.2834                 1.4571                 1.2241
 Frc consts  --      1.5808                 1.7989                 1.5528
 IR Inten    --     19.8028                15.7325                62.9080

                     64                     65                     66
                      A                      A                      A
 Frequencies --   1501.8918              1518.3105              1531.3372
 Red. masses --      1.2542                 1.2188                 1.0825
 Frc consts  --      1.6668                 1.6554                 1.4957
 IR Inten    --     12.5715               123.7879                 9.6355

                     67                     68                     69
                      A                      A                      A
 Frequencies --   1728.6379              1744.7477              3009.7440
 Red. masses --      1.0780                 1.0690                 1.0798
 Frc consts  --      1.8979                 1.9174                 5.7629
 IR Inten    --     83.5718                22.0234                48.1826

                     70                     71                     72
                      A                      A                      A
 Frequencies --   3020.1092              3040.6005              3074.0980
 Red. masses --      1.0788                 1.0854                 1.0855
 Frc consts  --      5.7976                 5.9124                 6.0437
 IR Inten    --     63.9842                30.3198                37.2881

                     73                     74                     75
                      A                      A                      A
 Frequencies --   3082.0937              3094.7948              3172.6513
 Red. masses --      1.0868                 1.0872                 1.0928
 Frc consts  --      6.0825                 6.1352                 6.4809
 IR Inten    --     10.8508                31.9454                 4.4185

                     76                     77                     78
                      A                      A                      A
 Frequencies --   3195.2821              3372.2933              3512.0768
 Red. masses --      1.0699                 1.0620                 1.0584
 Frc consts  --      6.4359                 7.1161                 7.6915
 IR Inten    --   1034.2949               844.6870               712.1605

                     79                     80                     81
                      A                      A                      A
 Frequencies --   3571.8944              3692.0407              3732.3626
 Red. masses --      1.0660                 1.0647                 1.0660
 Frc consts  --      8.0131                 8.5513                 8.7494
 IR Inten    --    186.5038                50.6827                15.3598

                     82                     83                     84
                      A                      A                      A
 Frequencies --   3736.3928              3799.0374              3801.7016
 Red. masses --      1.0663                 1.0694                 1.0674
 Frc consts  --      8.7705                 9.0936                 9.0896
 IR Inten    --     14.6804                79.0796                48.6060

 - Thermochemistry -
 -------------------
 Temperature   298.150 Kelvin.  Pressure   1.00000 Atm.
 Atom     1 has atomic number  8 and mass  15.99491

 Molecular mass:   216.08452 amu.
 Principal axes and moments of inertia in atomic units:
                           1         2         3
     Eigenvalues --  2433.065743561.354324844.66451
           X            0.99998  -0.00501   0.00435
           Y            0.00502   0.99999  -0.00091
           Z           -0.00435   0.00093   0.99999
 This molecule is an asymmetric top.
 Rotational symmetry number  1.
 Warning -- assumption of classical behavior for rotation
           may cause significant error
 Rotational temperatures (Kelvin)      0.03560     0.02432     0.01788
 Rotational constants (GHZ):           0.74176     0.50676     0.37252
 Zero-point vibrational energy     654794.1 (Joules/Mol)
                                  156.49954 (Kcal/Mol)
 Warning -- explicit consideration of  29 degrees of freedom as
           vibrations may cause significant error
 Vibrational temperatures:     17.02    52.59    61.72    76.05   117.68
          (Kelvin)            204.75   233.84   289.65   313.77   341.95
                              356.55   358.93   384.10   408.30   434.82
                              494.64   516.85   519.94   536.36   562.59
                              568.98   596.32   648.09   671.05   700.12
                              728.79   748.56   832.79   888.57   950.17
                              993.16  1009.20  1140.29  1204.14  1281.73
                             1319.17  1370.99  1434.27  1471.88  1502.48
                             1512.38  1555.16  1573.34  1577.58  1602.05
                             1612.11  1630.65  1653.56  1743.14  1775.71
                             1843.11  1878.80  1908.61  1926.91  1952.42
                             1970.46  1980.35  2011.34  2036.50  2039.55
                             2080.32  2082.65  2111.14  2160.88  2184.51
                             2203.25  2487.12  2510.30  4330.34  4345.26
                             4374.74  4422.94  4434.44  4452.71  4564.73
                             4597.29  4851.97  5053.09  5139.15  5312.02
                             5370.03  5375.83  5465.96  5469.79

 Zero-point correction=                           0.249398 (Hartree/Particle)
 Thermal correction to Energy=                    0.266577
 Thermal correction to Enthalpy=                  0.267521
 Thermal correction to Gibbs Free Energy=         0.203470
 Sum of electronic and zero-point Energies=           -839.750725
 Sum of electronic and thermal Energies=              -839.733546
 Sum of electronic and thermal Enthalpies=            -839.732602
 Sum of electronic and thermal Free Energies=         -839.796652

                     E (Thermal)             CV                S
                      KCal/Mol        Cal/Mol-Kelvin    Cal/Mol-Kelvin
 Total                  167.279             63.517            134.806
 Electronic               0.000              0.000              0.000
 Translational            0.889              2.981             42.015
 Rotational               0.889              2.981             32.107
 Vibrational            165.502             57.555             60.684
 Vibration     1          0.593              1.987              7.678
 Vibration     2          0.594              1.982              5.438
 Vibration     3          0.595              1.980              5.120
 Vibration     4          0.596              1.976              4.708
 Vibration     5          0.600              1.962              3.847
 Vibration     6          0.616              1.911              2.773
 Vibration     7          0.623              1.888              2.520
 Vibration     8          0.638              1.838              2.121
 Vibration     9          0.646              1.814              1.975
 Vibration    10          0.656              1.783              1.820
 Vibration    11          0.661              1.766              1.746
 Vibration    12          0.662              1.764              1.734
 Vibration    13          0.672              1.734              1.616
 Vibration    14          0.682              1.704              1.511
 Vibration    15          0.694              1.669              1.405
 Vibration    16          0.723              1.588              1.194
 Vibration    17          0.734              1.556              1.125
 Vibration    18          0.736              1.552              1.116
 Vibration    19          0.744              1.528              1.068
 Vibration    20          0.759              1.489              0.996
 Vibration    21          0.762              1.480              0.979
 Vibration    22          0.778              1.439              0.911
 Vibration    23          0.809              1.360              0.794
 Vibration    24          0.824              1.325              0.748
 Vibration    25          0.843              1.280              0.692
 Vibration    26          0.862              1.236              0.642
 Vibration    27          0.875              1.205              0.609
 Vibration    28          0.935              1.077              0.488
 Vibration    29          0.977              0.995              0.420

 Normal termination of Gaussian 09 at Sun Jan 22 20:13:02 2017.
