 Gaussian 09, Revision E.01,
 Gaussian 09:  ES64L-G09RevE.01 30-Nov-2015

 ------------------------------------------------------
 # opt=(modredundant,MaxCycle=1000) freq B3LYP/6-31G(d)
 ------------------------------------------------------

 -------------------
 Title Card Required
 -------------------
 Symbolic Z-matrix:
 Charge =  0 Multiplicity = 1

 SCF Done:  E(RB3LYP) =  -839.938207801     A.U. after   14 cycles
 SCF Done:  E(RB3LYP) =  -839.957408009     A.U. after   12 cycles
 SCF Done:  E(RB3LYP) =  -839.968558695     A.U. after   12 cycles
 SCF Done:  E(RB3LYP) =  -839.972152771     A.U. after   12 cycles
 SCF Done:  E(RB3LYP) =  -839.974335311     A.U. after   11 cycles
 SCF Done:  E(RB3LYP) =  -839.974882495     A.U. after   11 cycles
 SCF Done:  E(RB3LYP) =  -839.975128905     A.U. after   11 cycles
 SCF Done:  E(RB3LYP) =  -839.975255934     A.U. after   11 cycles
 SCF Done:  E(RB3LYP) =  -839.975330397     A.U. after   11 cycles
 SCF Done:  E(RB3LYP) =  -839.975368047     A.U. after   10 cycles
 SCF Done:  E(RB3LYP) =  -839.982835602     A.U. after    9 cycles
 SCF Done:  E(RB3LYP) =  -839.982848394     A.U. after    9 cycles
 SCF Done:  E(RB3LYP) =  -839.982852002     A.U. after    8 cycles
 SCF Done:  E(RB3LYP) =  -839.982853379     A.U. after    7 cycles
 SCF Done:  E(RB3LYP) =  -839.982853964     A.U. after    7 cycles
 SCF Done:  E(RB3LYP) =  -839.982854270     A.U. after    7 cycles
 SCF Done:  E(RB3LYP) =  -839.982854450     A.U. after    7 cycles
 SCF Done:  E(RB3LYP) =  -839.982854502     A.U. after    7 cycles
 SCF Done:  E(RB3LYP) =  -839.982854506     A.U. after    6 cycles
 Optimization completed.
    -- Stationary point found.

 1\1\GINC-TATANKA\FOpt\RB3LYP\6-31G(d)\C6H16O8\AALRAWAS\17-Jan-2017\0\\
 # opt=(modredundant,MaxCycle=1000) freq B3LYP/6-31G(d)\\Title Card Req
 uired\\0,1\H,1.1676000769,1.0612192141,0.8581313538\C,1.1486157452,0.5
 576686189,-0.1184651564\C,-0.2989931733,-1.4977077617,-0.5662354604\C,
 -1.2422938107,0.8862700236,-0.5525215373\C,-1.5454775928,-0.6267982505
 ,-0.3026861378\O,0.1152329481,1.1404740907,-0.923204074\C,0.9439568414
 ,-0.956998045,0.1478340275\H,-0.5025617014,-2.4991324733,-0.169642419\
 H,-2.3133876114,-0.9342926078,-1.026235252\H,1.8028314931,-1.504405422

 Normal termination of Gaussian 09 at Tue Jan 17 00:19:17 2017.

 --------------------------------------------------------------------
 #N Geom=AllCheck Guess=TCheck SCRF=Check GenChk RB3LYP/6-31G(d) Freq
 --------------------------------------------------------------------

 Structure from the checkpoint file:  "//home/aalrawas/scratch/Gau-27345.chk"
 -------------------
 Title Card Required
 -------------------
 Charge =  0 Multiplicity = 1

                         Standard orientation:
 ---------------------------------------------------------------------
 Center     Atomic      Atomic             Coordinates (Angstroms)
 Number     Number       Type             X           Y           Z
 ---------------------------------------------------------------------
      1          1           0        1.087289    0.619112   -1.274106
      2          6           0        0.921304    0.820532   -0.206612
      3          6           0       -1.256284    0.204043    0.976052
      4          6           0        0.578042   -1.512728    0.464878
      5          6           0       -0.953469   -1.278591    0.673129
      6          8           0        1.353732   -0.314740    0.554512
      7          6           0       -0.584907    1.146707   -0.027853
      8          1           0       -2.340101    0.346067    0.893914
      9          1           0       -1.259820   -1.857785    1.555424
     10          1           0       -0.678873    2.159822    0.381218
     11          6           0        1.811464    1.982285    0.213541
     12          1           0        2.869528    1.692927    0.126287
     13          1           0        1.605491    2.233530    1.263402
     14          8           0        1.489192    3.055289   -0.667757
     15          1           0        1.884521    3.867000   -0.318199
     16          8           0       -1.723144   -1.743973   -0.421244
     17          1           0       -1.103023   -1.892174   -1.158096
     18          8           0       -0.764682    0.573740    2.264952
     19          1           0       -1.405914    0.261945    2.921034
     20          8           0       -1.276753    1.072401   -1.277310
     21          1           0       -0.932068    1.794877   -1.826601
     22          1           0        0.992177   -2.122523    1.275506
     23          8           0        0.743492   -2.131487   -0.778574
     24          1           0        1.712586   -2.248546   -0.918587
     25          1           0        3.959781   -2.318684    0.036217
     26          8           0        3.460575   -1.770108   -0.587817
     27          1           0        3.066627   -1.056716   -0.044733
     28          8           0       -3.999777    0.066339   -0.785257
     29          1           0       -3.314975    0.657346   -1.143179
     30          1           0       -3.501212   -0.769380   -0.740353
 ---------------------------------------------------------------------

 SCF Done:  E(RB3LYP) =  -839.982854506     A.U. after    1 cycles

 The electronic state is 1-A.
 Alpha  occ. eigenvalues --  -19.17510 -19.16761 -19.16589 -19.16153 -19.15793
 Alpha  occ. eigenvalues --  -19.15459 -19.14463 -19.08903 -10.29845 -10.24755
 Alpha  occ. eigenvalues --  -10.24610 -10.24315 -10.24230 -10.23619  -1.08369
 Alpha  occ. eigenvalues --   -1.03978  -1.03491  -1.02557  -1.02363  -1.02335
 Alpha  occ. eigenvalues --   -1.00258  -0.94900  -0.78618  -0.76815  -0.69815
 Alpha  occ. eigenvalues --   -0.64968  -0.63055  -0.57416  -0.55625  -0.54980
 Alpha  occ. eigenvalues --   -0.54453  -0.52246  -0.51585  -0.50253  -0.48966
 Alpha  occ. eigenvalues --   -0.46825  -0.46513  -0.45325  -0.43331  -0.42589
 Alpha  occ. eigenvalues --   -0.41757  -0.40421  -0.40330  -0.38607  -0.37876
 Alpha  occ. eigenvalues --   -0.36823  -0.35129  -0.33987  -0.33560  -0.32093
 Alpha  occ. eigenvalues --   -0.31626  -0.30829  -0.29791  -0.29074  -0.28253
 Alpha  occ. eigenvalues --   -0.27237  -0.25542  -0.24285
 Alpha virt. eigenvalues --    0.03950   0.04781   0.05813   0.07787   0.09957
 Alpha virt. eigenvalues --    0.10339   0.10922   0.12372   0.13853   0.14742
 Alpha virt. eigenvalues --    0.16258   0.16346   0.17156   0.18440   0.19494

 Mulliken charges:
               1
     1  H    0.150587
     2  C    0.136079
     3  C    0.061990
     4  C    0.332671
     5  C    0.108559
     6  O   -0.535621
     7  C    0.096058
     8  H    0.169464
     9  H    0.126067
    10  H    0.153322
    11  C   -0.070827
    12  H    0.133446
    13  H    0.155533
    14  O   -0.631283
    15  H    0.405265
    16  O   -0.650448
    17  H    0.432554
    18  O   -0.635835
    19  H    0.401238
    20  O   -0.639926
    21  H    0.409180
    22  H    0.132662
    23  O   -0.671444
    24  H    0.436688
    25  H    0.400431
    26  O   -0.800076
    27  H    0.423150
    28  O   -0.835005
    29  H    0.398078
    30  H    0.407443
 Sum of Mulliken charges =  -0.00000

 Dipole moment (field-independent basis, Debye):
    X=              5.8031    Y=              1.3257    Z=              2.8491  Tot=              6.5994
 Quadrupole moment (field-independent basis, Debye-Ang):
   XX=            -96.7086   YY=            -70.9357   ZZ=            -79.6795
   XY=             -0.7240   XZ=             -0.2425   YZ=             -5.0981

  Exact polarizability: 101.315   0.940  95.601   0.929  -2.558  85.085
 Approx polarizability: 128.582   1.355 124.049   4.396  -0.865 126.622

 ******    1 imaginary frequencies (negative Signs) ******

                      1                      2                      3
                      A                      A                      A
 Frequencies --    -58.2820                47.7799                66.5758
 Red. masses --      4.8203                 6.2031                 5.8140
 Frc consts  --      0.0096                 0.0083                 0.0152
 IR Inten    --      2.6125                 3.0373                 4.9904

                      4                      5                      6
                      A                      A                      A
 Frequencies --     79.1963                92.3760               126.8175
 Red. masses --      6.6651                 6.9769                 4.9250
 Frc consts  --      0.0246                 0.0351                 0.0467
 IR Inten    --     12.4707                 0.9624                 2.9227

                      7                      8                      9
                      A                      A                      A
 Frequencies --    133.5645               149.3402               153.8139
 Red. masses --      4.1878                 4.7035                 4.7828
 Frc consts  --      0.0440                 0.0618                 0.0667
 IR Inten    --      3.0332                 4.7389                18.5272

                     10                     11                     12
                      A                      A                      A
 Frequencies --    181.8009               201.7201               206.1222
 Red. masses --      1.3638                 5.9503                 2.6855
 Frc consts  --      0.0266                 0.1427                 0.0672
 IR Inten    --     49.3161                 0.8783                49.4599

                     13                     14                     15
                      A                      A                      A
 Frequencies --    224.6925               242.4332               247.4724
 Red. masses --      3.2575                 1.6286                 2.8433
 Frc consts  --      0.0969                 0.0564                 0.1026
 IR Inten    --     36.1771                39.8190                14.3530

                     16                     17                     18
                      A                      A                      A
 Frequencies --    286.7302               297.7187               307.4528
 Red. masses --      1.1249                 1.2028                 1.1752
 Frc consts  --      0.0545                 0.0628                 0.0655
 IR Inten    --     92.3576               111.6441                10.2758

                     19                     20                     21
                      A                      A                      A
 Frequencies --    340.1214               363.3397               373.2055
 Red. masses --      1.1372                 2.9613                 2.9754
 Frc consts  --      0.0775                 0.2303                 0.2442
 IR Inten    --    107.5003                16.0069                15.7312

                     22                     23                     24
                      A                      A                      A
 Frequencies --    396.0410               401.5227               423.7586
 Red. masses --      2.1755                 4.3414                 1.8550
 Frc consts  --      0.2010                 0.4124                 0.1963
 IR Inten    --     23.8932                37.4544               107.2259

                     25                     26                     27
                      A                      A                      A
 Frequencies --    469.7314               474.8004               502.7060
 Red. masses --      5.8496                 3.8491                 1.1273
 Frc consts  --      0.7605                 0.5113                 0.1678
 IR Inten    --      4.6823                 8.4009                11.2448

                     28                     29                     30
                      A                      A                      A
 Frequencies --    539.3174               563.4518               610.6487
 Red. masses --      5.6794                 5.0527                 5.3654
 Frc consts  --      0.9733                 0.9451                 1.1788
 IR Inten    --     31.6095                 0.3937                16.8570

                     31                     32                     33
                      A                      A                      A
 Frequencies --    667.3416               686.6867               688.1315
 Red. masses --      1.1270                 1.2238                 3.0406
 Frc consts  --      0.2957                 0.3400                 0.8483
 IR Inten    --    290.4829               190.0976               126.4504

                     34                     35                     36
                      A                      A                      A
 Frequencies --    793.0515               838.6798               847.0276
 Red. masses --      2.8944                 1.9939                 1.4616
 Frc consts  --      1.0725                 0.8263                 0.6178
 IR Inten    --     18.2649                20.7859                96.9465

                     37                     38                     39
                      A                      A                      A
 Frequencies --    899.0624               949.2262              1004.9077
 Red. masses --      3.4795                 2.7168                 2.4635
 Frc consts  --      1.6571                 1.4422                 1.4657
 IR Inten    --     27.7069                 0.5132                39.2711

                     40                     41                     42
                      A                      A                      A
 Frequencies --   1047.7093              1079.7924              1080.7802
 Red. masses --      5.0976                 3.0899                 3.6129
 Frc consts  --      3.2969                 2.1226                 2.4865
 IR Inten    --    105.4949               154.6431                43.1443

                     43                     44                     45
                      A                      A                      A
 Frequencies --   1084.1566              1096.9098              1111.8675
 Red. masses --      6.2573                 3.2239                 2.3514
 Frc consts  --      4.3333                 2.2855                 1.7127
 IR Inten    --    197.8456                62.1059                36.2001

                     46                     47                     48
                      A                      A                      A
 Frequencies --   1131.8629              1140.4371              1153.7985
 Red. masses --      3.5028                 2.7430                 4.1330
 Frc consts  --      2.6439                 2.1020                 3.2417
 IR Inten    --     22.2895                23.9988                79.3763

                     49                     50                     51
                      A                      A                      A
 Frequencies --   1235.9200              1243.2953              1266.7988
 Red. masses --      1.1746                 1.1908                 1.1573
 Frc consts  --      1.0571                 1.0845                 1.0943
 IR Inten    --     39.0707                18.6101                34.2039

                     52                     53                     54
                      A                      A                      A
 Frequencies --   1270.7415              1293.1510              1336.6927
 Red. masses --      1.1582                 1.1377                 1.2828
 Frc consts  --      1.1019                 1.1210                 1.3504
 IR Inten    --     40.9579                39.5257                30.2800

                     55                     56                     57
                      A                      A                      A
 Frequencies --   1349.5215              1358.3485              1382.0694
 Red. masses --      1.2743                 1.3320                 1.2111
 Frc consts  --      1.3674                 1.4480                 1.3630
 IR Inten    --     24.8184                 4.7940                 1.6364

                     58                     59                     60
                      A                      A                      A
 Frequencies --   1396.1336              1414.6667              1422.3051
 Red. masses --      1.2443                 1.1945                 1.2862
 Frc consts  --      1.4290                 1.4085                 1.5330
 IR Inten    --      9.2471                 0.1152                28.0930

                     61                     62                     63
                      A                      A                      A
 Frequencies --   1431.3596              1469.3630              1470.6325
 Red. masses --      1.4530                 1.2674                 1.5170
 Frc consts  --      1.7539                 1.6123                 1.9331
 IR Inten    --      1.0242               128.6032                 3.5169

                     64                     65                     66
                      A                      A                      A
 Frequencies --   1492.4499              1502.1333              1552.8391
 Red. masses --      1.5814                 1.3883                 1.0847
 Frc consts  --      2.0753                 1.8457                 1.5411
 IR Inten    --      0.6965                64.5129                 4.8855

                     67                     68                     69
                      A                      A                      A
 Frequencies --   1714.8029              1765.6600              3013.1148
 Red. masses --      1.0770                 1.0808                 1.0581
 Frc consts  --      1.8660                 1.9852                 5.6598
 IR Inten    --     50.1127               223.9613                54.5306

                     70                     71                     72
                      A                      A                      A
 Frequencies --   3022.9697              3034.0928              3055.7583
 Red. masses --      1.0860                 1.0854                 1.0879
 Frc consts  --      5.8473                 5.8872                 5.9851
 IR Inten    --     37.1861                12.1804                17.5831

                     73                     74                     75
                      A                      A                      A
 Frequencies --   3064.1186              3069.7249              3076.7669
 Red. masses --      1.1025                 1.0873                 1.0880
 Frc consts  --      6.0988                 6.0365                 6.0682
 IR Inten    --     60.9746                73.8802                 5.2948

                     76                     77                     78
                      A                      A                      A
 Frequencies --   3466.1622              3602.9309              3679.6069
 Red. masses --      1.0662                 1.0549                 1.0623
 Frc consts  --      7.5474                 8.0685                 8.4744
 IR Inten    --    373.1759               367.2993               149.3601

                     79                     80                     81
                      A                      A                      A
 Frequencies --   3687.8732              3737.8290              3757.2324
 Red. masses --      1.0501                 1.0666                 1.0770
 Frc consts  --      8.4150                 8.7801                 8.9580
 IR Inten    --     47.1743                41.8264                75.3557

                     82                     83                     84
                      A                      A                      A
 Frequencies --   3759.0848              3772.9133              3803.4653
 Red. masses --      1.0671                 1.0668                 1.0731
 Frc consts  --      8.8846                 8.9468                 9.1464
 IR Inten    --     19.5136                30.8477                88.3814

 - Thermochemistry -
 -------------------
 Temperature   298.150 Kelvin.  Pressure   1.00000 Atm.
 Atom     1 has atomic number  1 and mass   1.00783

 Molecular mass:   216.08452 amu.
 Principal axes and moments of inertia in atomic units:
                           1         2         3
     Eigenvalues --  2548.019983444.486144613.59630
           X            0.99998  -0.00530   0.00184
           Y            0.00531   0.99997  -0.00580
           Z           -0.00181   0.00581   0.99998
 This molecule is an asymmetric top.
 Rotational symmetry number  1.
 Warning -- assumption of classical behavior for rotation
           may cause significant error
 Rotational temperatures (Kelvin)      0.03399     0.02515     0.01877
 Rotational constants (GHZ):           0.70829     0.52395     0.39118
    1 imaginary frequencies ignored.
 Zero-point vibrational energy     650638.2 (Joules/Mol)
                                  155.50626 (Kcal/Mol)
 Warning -- explicit consideration of  29 degrees of freedom as
           vibrations may cause significant error
 Vibrational temperatures:     68.74    95.79   113.95   132.91   182.46
          (Kelvin)            192.17   214.87   221.30   261.57   290.23
                              296.56   323.28   348.81   356.06   412.54
                              428.35   442.36   489.36   522.76   536.96
                              569.81   577.70   609.69   675.84   683.13
                              723.28   775.96   810.68   878.59   960.15
                              987.99   990.07  1141.02  1206.67  1218.68
                             1293.55  1365.72  1445.84  1507.42  1553.58
                             1555.00  1559.86  1578.21  1599.73  1628.50
                             1640.83  1660.06  1778.21  1788.82  1822.64
                             1828.31  1860.55  1923.20  1941.66  1954.36
                             1988.49  2008.72  2035.39  2046.38  2059.40
                             2114.08  2115.91  2147.30  2161.23  2234.19
                             2467.22  2540.39  4335.19  4349.37  4365.38
                             4396.55  4408.58  4416.64  4426.78  4987.03
                             5183.81  5294.13  5306.02  5377.90  5405.81
                             5408.48  5428.37  5472.33

 Zero-point correction=                           0.247815 (Hartree/Particle)
 Thermal correction to Energy=                    0.265232
 Thermal correction to Enthalpy=                  0.266176
 Thermal correction to Gibbs Free Energy=         0.203988
 Sum of electronic and zero-point Energies=           -839.735040
 Sum of electronic and thermal Energies=              -839.717623
 Sum of electronic and thermal Enthalpies=            -839.716679
 Sum of electronic and thermal Free Energies=         -839.778867

                     E (Thermal)             CV                S
                      KCal/Mol        Cal/Mol-Kelvin    Cal/Mol-Kelvin
 Total                  166.435             63.996            130.887
 Electronic               0.000              0.000              0.000
 Translational            0.889              2.981             42.015
 Rotational               0.889              2.981             32.071
 Vibrational            164.658             58.034             56.801
 Vibration     1          0.595              1.978              4.907
 Vibration     2          0.598              1.970              4.252
 Vibration     3          0.600              1.963              3.911
 Vibration     4          0.602              1.955              3.609
 Vibration     5          0.611              1.926              2.994
 Vibration     6          0.613              1.920              2.894
 Vibration     7          0.618              1.903              2.681
 Vibration     8          0.619              1.898              2.625
 Vibration     9          0.630              1.865              2.310
 Vibration    10          0.639              1.837              2.117
 Vibration    11          0.641              1.831              2.078
 Vibration    12          0.649              1.803              1.921
 Vibration    13          0.659              1.775              1.785
 Vibration    14          0.661              1.767              1.749
 Vibration    15          0.684              1.698              1.493
 Vibration    16          0.691              1.678              1.430
 Vibration    17          0.697              1.660              1.376
 Vibration    18          0.720              1.595              1.212
 Vibration    19          0.737              1.548              1.108
 Vibration    20          0.745              1.527              1.067
 Vibration    21          0.763              1.479              0.977
 Vibration    22          0.767              1.467              0.957
 Vibration    23          0.786              1.419              0.879
 Vibration    24          0.827              1.317              0.738
 Vibration    25          0.832              1.306              0.724
 Vibration    26          0.858              1.244              0.651
 Vibration    27          0.894              1.163              0.567
 Vibration    28          0.919              1.110              0.517
 Vibration    29          0.970              1.009              0.432

 1\1\GINC-TATANKA\Freq\RB3LYP\6-31G(d)\C6H16O8\AALRAWAS\17-Jan-2017\0\\
 #N Geom=AllCheck Guess=TCheck SCRF=Check GenChk RB3LYP/6-31G(d) Freq\\
 Title Card Required\\0,1\H,1.1676000769,1.0612192141,0.8581313538\C,1.
 1486157452,0.5576686189,-0.1184651564\C,-0.2989931733,-1.4977077617,-0
 .5662354604\C,-1.2422938107,0.8862700236,-0.5525215373\C,-1.5454775928
 ,-0.6267982505,-0.3026861378\O,0.1152329481,1.1404740907,-0.923204074\
 C,0.9439568414,-0.956998045,0.1478340275\H,-0.5025617014,-2.4991324733
 ,-0.169642419\H,-2.3133876114,-0.9342926078,-1.026235252\H,1.802831493

 Normal termination of Gaussian 09 at Tue Jan 17 00:23:54 2017.
