 Gaussian 09, Revision E.01,
 Gaussian 09:  ES64L-G09RevE.01 30-Nov-2015

 ------------------------------------------------------
 # opt=(modredundant,MaxCycle=1000) freq B3LYP/6-31G(d)
 ------------------------------------------------------

 -------------------
 Title Card Required
 -------------------
 Symbolic Z-matrix:
 Charge =  0 Multiplicity = 1

 SCF Done:  E(RB3LYP) =  -839.982346336     A.U. after   14 cycles
 SCF Done:  E(RB3LYP) =  -839.992859807     A.U. after   12 cycles
 SCF Done:  E(RB3LYP) =  -839.996446545     A.U. after   11 cycles
 SCF Done:  E(RB3LYP) =  -839.998128335     A.U. after   12 cycles
 SCF Done:  E(RB3LYP) =  -839.998782210     A.U. after   11 cycles
 SCF Done:  E(RB3LYP) =  -839.999484209     A.U. after   11 cycles
 SCF Done:  E(RB3LYP) =  -839.999780112     A.U. after   11 cycles
 SCF Done:  E(RB3LYP) =  -839.999908855     A.U. after   10 cycles
 SCF Done:  E(RB3LYP) =  -839.999974632     A.U. after    9 cycles
 SCF Done:  E(RB3LYP) =  -840.000024979     A.U. after   10 cycles
 SCF Done:  E(RB3LYP) =  -840.000277915     A.U. after    9 cycles
 SCF Done:  E(RB3LYP) =  -840.000284425     A.U. after    9 cycles
 SCF Done:  E(RB3LYP) =  -840.000290788     A.U. after    9 cycles
 SCF Done:  E(RB3LYP) =  -840.000292458     A.U. after    7 cycles
 SCF Done:  E(RB3LYP) =  -840.000293805     A.U. after    7 cycles
 SCF Done:  E(RB3LYP) =  -840.000294461     A.U. after    7 cycles
 SCF Done:  E(RB3LYP) =  -840.000295292     A.U. after    7 cycles
 SCF Done:  E(RB3LYP) =  -840.000295969     A.U. after    7 cycles
 SCF Done:  E(RB3LYP) =  -840.000296166     A.U. after    6 cycles
 Optimization completed.
    -- Stationary point found.

 1\1\GINC-TATANKA\FOpt\RB3LYP\6-31G(d)\C6H16O8\AALRAWAS\16-Jan-2017\0\\
 # opt=(modredundant,MaxCycle=1000) freq B3LYP/6-31G(d)\\Title Card Req
 uired\\0,1\H,-1.6648798364,0.0577548524,1.5314391307\C,-1.1478171431,-
 0.265930104,0.6215175673\C,0.988370947,0.9988736931,0.213471528\C,0.94
 38911571,-1.5303094106,0.2001959362\C,1.5719746107,-0.2621622425,-0.41
 00558642\O,-0.156899811,-1.1939849087,1.0944966124\C,-0.5167023907,1.0
 024848991,-0.0022725338\H,1.6670587243,-1.9953658031,0.8785979843\H,1.
 3409108734,-0.2552481808,-1.4859451776\H,-0.6919546918,1.0033092628,-1

 Normal termination of Gaussian 09 at Mon Jan 16 23:15:29 2017.

 --------------------------------------------------------------------
 #N Geom=AllCheck Guess=TCheck SCRF=Check GenChk RB3LYP/6-31G(d) Freq
 --------------------------------------------------------------------

 Structure from the checkpoint file:  "//home/aalrawas/scratch/Gau-15497.chk"
 -------------------
 Title Card Required
 -------------------
 Charge =  0 Multiplicity = 1

                         Standard orientation:
 ---------------------------------------------------------------------
 Center     Atomic      Atomic             Coordinates (Angstroms)
 Number     Number       Type             X           Y           Z
 ---------------------------------------------------------------------
      1          1           0        0.262828    1.793151    1.242974
      2          6           0        0.195973    1.152511    0.356862
      3          6           0        1.864558   -0.730133    0.388583
      4          6           0       -0.592949   -1.168359   -0.020730
      5          6           0        0.851135   -1.590992   -0.354038
      6          8           0       -0.612793    0.044589    0.787349
      7          6           0        1.643180    0.725874    0.010640
      8          1           0       -1.034888   -1.909777    0.653413
      9          1           0        1.003144   -1.450129   -1.434791
     10          1           0        1.800824    0.810120   -1.075236
     11          6           0       -0.450928    1.969942   -0.760324
     12          1           0       -1.469423    2.260215   -0.465369
     13          1           0       -0.510614    1.378140   -1.681859
     14          8           0       -1.308385   -1.025313   -1.196060
     15          1           0       -2.277664   -1.071282   -0.984631
     16          1           0        1.721242   -0.853518    1.472448
     17          8           0        0.399036    3.112381   -0.912787
     18          1           0        0.128327    3.590020   -1.710333
     19          8           0        0.993435   -2.959506   -0.004200
     20          1           0        1.938364   -3.160958   -0.111674
     21          8           0        3.159269   -1.177014    0.003664
     22          1           0        3.785757   -0.524072    0.357912
     23          8           0        2.618721    1.511779    0.688971
     24          1           0        2.554293    2.406450    0.315512
     25          8           0       -3.190999    0.811735    1.426039
     26          1           0       -2.243699    0.564673    1.300863
     27          1           0       -3.391304    0.588533    2.347582
     28          8           0       -3.935615   -1.023358   -0.432661
     29          1           0       -3.845438   -0.343621    0.282657
     30          1           0       -4.468918   -0.593352   -1.117957
 ---------------------------------------------------------------------

 SCF Done:  E(RB3LYP) =  -840.000296166     A.U. after    1 cycles

 The electronic state is 1-A.
 Alpha  occ. eigenvalues --  -19.17023 -19.16345 -19.15675 -19.15411 -19.14776
 Alpha  occ. eigenvalues --  -19.14491 -19.13756 -19.13412 -10.28262 -10.24457
 Alpha  occ. eigenvalues --  -10.23892 -10.23767 -10.23183 -10.23102  -1.06552
 Alpha  occ. eigenvalues --   -1.03744  -1.03186  -1.02001  -1.01640  -1.00441
 Alpha  occ. eigenvalues --   -1.00210  -0.99039  -0.78281  -0.76519  -0.69186
 Alpha  occ. eigenvalues --   -0.63626  -0.62399  -0.56371  -0.55078  -0.54608
 Alpha  occ. eigenvalues --   -0.53824  -0.52533  -0.51703  -0.50964  -0.48304
 Alpha  occ. eigenvalues --   -0.47445  -0.45312  -0.44156  -0.43716  -0.42712
 Alpha  occ. eigenvalues --   -0.41231  -0.40726  -0.40055  -0.38297  -0.37053
 Alpha  occ. eigenvalues --   -0.36446  -0.35690  -0.34348  -0.33148  -0.31788
 Alpha  occ. eigenvalues --   -0.31268  -0.30599  -0.29568  -0.28625  -0.27637
 Alpha  occ. eigenvalues --   -0.27227  -0.26263  -0.25913
 Alpha virt. eigenvalues --    0.04119   0.05475   0.07478   0.08967   0.10115
 Alpha virt. eigenvalues --    0.10785   0.10879   0.13264   0.14018   0.14849
 Alpha virt. eigenvalues --    0.16177   0.16824   0.17168   0.17812   0.18528

 Mulliken charges:
               1
     1  H    0.158768
     2  C    0.124858
     3  C    0.115572
     4  C    0.318370
     5  C    0.111345
     6  O   -0.552255
     7  C    0.092159
     8  H    0.158718
     9  H    0.143405
    10  H    0.132793
    11  C   -0.081066
    12  H    0.143819
    13  H    0.158950
    14  O   -0.653613
    15  H    0.434396
    16  H    0.135836
    17  O   -0.637592
    18  H    0.404435
    19  O   -0.649295
    20  H    0.410055
    21  O   -0.660188
    22  H    0.411388
    23  O   -0.655998
    24  H    0.410194
    25  O   -0.821935
    26  H    0.440708
    27  H    0.400135
    28  O   -0.817220
    29  H    0.427708
    30  H    0.395547
 Sum of Mulliken charges =  -0.00000

 Dipole moment (field-independent basis, Debye):
    X=             -0.9004    Y=              3.7348    Z=             -0.2579  Tot=              3.8504
 Quadrupole moment (field-independent basis, Debye-Ang):
   XX=            -76.5121   YY=            -86.2724   ZZ=            -75.9597
   XY=             -3.0582   XZ=             -1.7546   YZ=             -7.5896

  Exact polarizability: 105.493  -0.031  97.349   1.999  -1.042  80.776
 Approx polarizability: 131.520   2.803 126.871   1.979   0.298 121.861

                      1                      2                      3
                      A                      A                      A
 Frequencies --     11.6402                37.0062                43.9109
 Red. masses --      5.2720                 4.9521                 5.9105
 Frc consts  --      0.0004                 0.0040                 0.0067
 IR Inten    --      2.6557                 2.8969                 0.3674

                      4                      5                      6
                      A                      A                      A
 Frequencies --     81.8133               104.4657               126.5199
 Red. masses --      6.2054                 5.9800                 6.3558
 Frc consts  --      0.0245                 0.0385                 0.0599
 IR Inten    --      3.2302                 4.0733                 2.3326

                      7                      8                      9
                      A                      A                      A
 Frequencies --    132.8980               171.5821               188.8621
 Red. masses --      5.2706                 5.3287                 2.8069
 Frc consts  --      0.0548                 0.0924                 0.0590
 IR Inten    --     11.9498                11.9254                12.1471

                     10                     11                     12
                      A                      A                      A
 Frequencies --    203.5977               237.0289               237.9845
 Red. masses --      5.2526                 1.5647                 2.0031
 Frc consts  --      0.1283                 0.0518                 0.0668
 IR Inten    --      5.1238                57.4209                27.6728

                     13                     14                     15
                      A                      A                      A
 Frequencies --    257.4613               262.7028               281.0870
 Red. masses --      1.5550                 1.9990                 5.5454
 Frc consts  --      0.0607                 0.0813                 0.2581
 IR Inten    --     46.1477               110.3438                29.2314

                     16                     17                     18
                      A                      A                      A
 Frequencies --    296.1877               313.0060               365.1489
 Red. masses --      3.5477                 4.4482                 1.2961
 Frc consts  --      0.1834                 0.2568                 0.1018
 IR Inten    --      7.2429                 0.9825               126.6630

                     19                     20                     21
                      A                      A                      A
 Frequencies --    389.3210               396.7246               399.6076
 Red. masses --      3.8823                 1.3162                 1.1368
 Frc consts  --      0.3467                 0.1221                 0.1070
 IR Inten    --     32.9000               134.4238                54.0664

                     22                     23                     24
                      A                      A                      A
 Frequencies --    425.3116               434.3268               450.3711
 Red. masses --      1.9681                 1.7575                 1.2656
 Frc consts  --      0.2098                 0.1953                 0.1512
 IR Inten    --     68.6263                34.8704                93.8376

                     25                     26                     27
                      A                      A                      A
 Frequencies --    472.0698               472.8832               498.9029
 Red. masses --      2.1643                 1.7481                 2.6759
 Frc consts  --      0.2842                 0.2303                 0.3924
 IR Inten    --     68.2927                 1.9875                35.6884

                     28                     29                     30
                      A                      A                      A
 Frequencies --    505.7980               540.1089               586.5340
 Red. masses --      5.3906                 3.8286                 5.1034
 Frc consts  --      0.8125                 0.6580                 1.0344
 IR Inten    --     12.2743                 8.1635                32.9744

                     31                     32                     33
                      A                      A                      A
 Frequencies --    613.8276               736.7438               758.2463
 Red. masses --      3.1381                 2.6544                 1.3304
 Frc consts  --      0.6966                 0.8489                 0.4507
 IR Inten    --     19.8897                93.7400                34.1179

                     34                     35                     36
                      A                      A                      A
 Frequencies --    823.8998               902.4351               919.4640
 Red. masses --      1.0946                 3.3732                 2.5695
 Frc consts  --      0.4378                 1.6185                 1.2799
 IR Inten    --    119.1909                55.4809                77.1593

                     37                     38                     39
                      A                      A                      A
 Frequencies --   1008.2259              1018.8735              1031.6256
 Red. masses --      1.2812                 2.5138                 2.4931
 Frc consts  --      0.7673                 1.5375                 1.5633
 IR Inten    --    306.1824                 9.2130                44.2016

                     40                     41                     42
                      A                      A                      A
 Frequencies --   1041.7629              1055.3851              1060.4276
 Red. masses --      3.8705                 3.4164                 6.6279
 Frc consts  --      2.4749                 2.2420                 4.3913
 IR Inten    --    182.6044                52.0550                94.9953

                     43                     44                     45
                      A                      A                      A
 Frequencies --   1095.9138              1119.6497              1123.7784
 Red. masses --      2.4992                 2.8708                 2.5607
 Frc consts  --      1.7685                 2.1204                 1.9053
 IR Inten    --      5.4153                17.6012                 6.0600

                     46                     47                     48
                      A                      A                      A
 Frequencies --   1134.6852              1148.6537              1163.9476
 Red. masses --      2.9253                 4.3134                 3.9019
 Frc consts  --      2.2191                 3.3531                 3.1146
 IR Inten    --    143.6432                41.4968                58.2142

                     49                     50                     51
                      A                      A                      A
 Frequencies --   1217.0610              1238.1790              1263.7728
 Red. masses --      1.2651                 1.2161                 1.1669
 Frc consts  --      1.1041                 1.0985                 1.0980
 IR Inten    --      8.4117                11.3332                27.2774

                     52                     53                     54
                      A                      A                      A
 Frequencies --   1271.3507              1274.6375              1337.2004
 Red. masses --      1.1215                 1.1775                 1.2223
 Frc consts  --      1.0680                 1.1272                 1.2877
 IR Inten    --     20.4447                27.3098                 8.8728

                     55                     56                     57
                      A                      A                      A
 Frequencies --   1349.1250              1373.4785              1375.4106
 Red. masses --      1.2375                 1.2425                 1.2200
 Frc consts  --      1.3271                 1.3809                 1.3598
 IR Inten    --     88.9187                78.6371                 1.6202

                     58                     59                     60
                      A                      A                      A
 Frequencies --   1380.5132              1402.2736              1406.4500
 Red. masses --      1.2667                 1.4132                 1.2253
 Frc consts  --      1.4224                 1.6373                 1.4280
 IR Inten    --     15.1301                 1.8350                17.4792

                     61                     62                     63
                      A                      A                      A
 Frequencies --   1446.1562              1457.4455              1461.8027
 Red. masses --      1.5468                 1.4851                 1.4492
 Frc consts  --      1.9059                 1.8586                 1.8245
 IR Inten    --     35.0876                20.2898                 2.1941

                     64                     65                     66
                      A                      A                      A
 Frequencies --   1474.0133              1553.4445              1558.7942
 Red. masses --      1.5139                 1.2957                 1.0873
 Frc consts  --      1.9379                 1.8423                 1.5566
 IR Inten    --      6.5603                29.0854                 7.2290

                     67                     68                     69
                      A                      A                      A
 Frequencies --   1719.4041              1739.7872              3010.8435
 Red. masses --      1.0792                 1.0687                 1.0831
 Frc consts  --      1.8798                 1.9058                 5.7850
 IR Inten    --     79.7459                30.7219                 5.4942

                     70                     71                     72
                      A                      A                      A
 Frequencies --   3016.4068              3030.9618              3034.8986
 Red. masses --      1.0820                 1.0604                 1.0860
 Frc consts  --      5.8003                 5.7397                 5.8933
 IR Inten    --      3.3169                37.5955                79.8458

                     73                     74                     75
                      A                      A                      A
 Frequencies --   3073.0553              3087.6046              3093.4689
 Red. masses --      1.0903                 1.0877                 1.1003
 Frc consts  --      6.0663                 6.1094                 6.2037
 IR Inten    --      4.6773                29.3559                40.2570

                     76                     77                     78
                      A                      A                      A
 Frequencies --   3304.9215              3410.2355              3477.0662
 Red. masses --      1.0673                 1.0628                 1.0594
 Frc consts  --      6.8685                 7.2821                 7.5461
 IR Inten    --    349.9203              1161.0830               731.2758

                     79                     80                     81
                      A                      A                      A
 Frequencies --   3724.7780              3729.0160              3731.2537
 Red. masses --      1.0655                 1.0657                 1.0660
 Frc consts  --      8.7097                 8.7310                 8.7443
 IR Inten    --     33.8662                36.3664                45.8509

                     82                     83                     84
                      A                      A                      A
 Frequencies --   3769.7828              3796.6377              3797.4562
 Red. masses --      1.0668                 1.0677                 1.0684
 Frc consts  --      8.9320                 9.0680                 9.0780
 IR Inten    --     27.7331                61.2775                57.8054

 - Thermochemistry -
 -------------------
 Temperature   298.150 Kelvin.  Pressure   1.00000 Atm.
 Atom     1 has atomic number  1 and mass   1.00783

 Molecular mass:   216.08452 amu.
 Principal axes and moments of inertia in atomic units:
                           1         2         3
     Eigenvalues --  2474.889563707.767705295.38909
           X            0.99999  -0.00434  -0.00330
           Y            0.00431   0.99995  -0.00873
           Z            0.00333   0.00872   0.99996
 This molecule is an asymmetric top.
 Rotational symmetry number  1.
 Warning -- assumption of classical behavior for rotation
           may cause significant error
 Rotational temperatures (Kelvin)      0.03500     0.02336     0.01636
 Rotational constants (GHZ):           0.72922     0.48675     0.34081
 Zero-point vibrational energy     652390.0 (Joules/Mol)
                                  155.92496 (Kcal/Mol)
 Warning -- explicit consideration of  31 degrees of freedom as
           vibrations may cause significant error
 Vibrational temperatures:     16.75    53.24    63.18   117.71   150.30
          (Kelvin)            182.03   191.21   246.87   271.73   292.93
                              341.03   342.41   370.43   377.97   404.42
                              426.15   450.35   525.37   560.15   570.80
                              574.95   611.93   624.90   647.98   679.20
                              680.37   717.81   727.73   777.10   843.89
                              883.16  1060.01  1090.95  1185.41  1298.40
                             1322.90  1450.61  1465.93  1484.28  1498.86
                             1518.46  1525.72  1576.77  1610.92  1616.86
                             1632.56  1652.65  1674.66  1751.08  1781.46
                             1818.28  1829.19  1833.92  1923.93  1941.09
                             1976.13  1978.91  1986.25  2017.56  2023.57
                             2080.69  2096.94  2103.21  2120.77  2235.06
                             2242.75  2473.84  2503.16  4331.93  4339.93
                             4360.87  4366.54  4421.44  4442.37  4450.81
                             4755.04  4906.56  5002.72  5359.12  5365.22
                             5368.44  5423.87  5462.51  5463.69

 Zero-point correction=                           0.248482 (Hartree/Particle)
 Thermal correction to Energy=                    0.266181
 Thermal correction to Enthalpy=                  0.267125
 Thermal correction to Gibbs Free Energy=         0.202234
 Sum of electronic and zero-point Energies=           -839.751814
 Sum of electronic and thermal Energies=              -839.734115
 Sum of electronic and thermal Enthalpies=            -839.733171
 Sum of electronic and thermal Free Energies=         -839.798062

                     E (Thermal)             CV                S
                      KCal/Mol        Cal/Mol-Kelvin    Cal/Mol-Kelvin
 Total                  167.031             64.663            136.576
 Electronic               0.000              0.000              0.000
 Translational            0.889              2.981             42.015
 Rotational               0.889              2.981             32.252
 Vibrational            165.254             58.702             62.309
 Vibration     1          0.593              1.987              7.709
 Vibration     2          0.594              1.982              5.413
 Vibration     3          0.595              1.980              5.074
 Vibration     4          0.600              1.962              3.847
 Vibration     5          0.605              1.946              3.369
 Vibration     6          0.611              1.927              2.998
 Vibration     7          0.613              1.920              2.904
 Vibration     8          0.626              1.877              2.418
 Vibration     9          0.633              1.855              2.239
 Vibration    10          0.639              1.835              2.100
 Vibration    11          0.656              1.784              1.825
 Vibration    12          0.656              1.782              1.818
 Vibration    13          0.667              1.750              1.679
 Vibration    14          0.670              1.741              1.644
 Vibration    15          0.681              1.709              1.527
 Vibration    16          0.690              1.681              1.438
 Vibration    17          0.701              1.649              1.346
 Vibration    18          0.738              1.544              1.100
 Vibration    19          0.757              1.493              1.003
 Vibration    20          0.763              1.477              0.975
 Vibration    21          0.766              1.471              0.964
 Vibration    22          0.787              1.415              0.874
 Vibration    23          0.795              1.395              0.845
 Vibration    24          0.809              1.360              0.795
 Vibration    25          0.829              1.312              0.732
 Vibration    26          0.830              1.310              0.730
 Vibration    27          0.854              1.252              0.661
 Vibration    28          0.861              1.237              0.644
 Vibration    29          0.895              1.161              0.565
 Vibration    30          0.944              1.061              0.473
 Vibration    31          0.973              1.003              0.426

 1\1\GINC-TATANKA\Freq\RB3LYP\6-31G(d)\C6H16O8\AALRAWAS\16-Jan-2017\0\\
 #N Geom=AllCheck Guess=TCheck SCRF=Check GenChk RB3LYP/6-31G(d) Freq\\
 Title Card Required\\0,1\H,-1.6648798364,0.0577548524,1.5314391307\C,-
 1.1478171431,-0.265930104,0.6215175673\C,0.988370947,0.9988736931,0.21
 3471528\C,0.9438911571,-1.5303094106,0.2001959362\C,1.5719746107,-0.26
 21622425,-0.4100558642\O,-0.156899811,-1.1939849087,1.0944966124\C,-0.
 5167023907,1.0024848991,-0.0022725338\H,1.6670587243,-1.9953658031,0.8
 785979843\H,1.3409108734,-0.2552481808,-1.4859451776\H,-0.6919546918,1

 Normal termination of Gaussian 09 at Mon Jan 16 23:19:27 2017.
