 Gaussian 09, Revision E.01,
 Gaussian 09:  ES64L-G09RevE.01 30-Nov-2015

 ------------------------------------------------------
 # opt=(modredundant,MaxCycle=1000) freq B3LYP/6-31G(d)
 ------------------------------------------------------

 ------------------------
 boat2_Beta_B3LYP_6-31G_d
 ------------------------
 Symbolic Z-matrix:
 Charge =  0 Multiplicity = 1

 SCF Done:  E(RB3LYP) =  -839.927882442     A.U. after   14 cycles
 SCF Done:  E(RB3LYP) =  -839.950342815     A.U. after   13 cycles
 SCF Done:  E(RB3LYP) =  -839.964328148     A.U. after   12 cycles
 SCF Done:  E(RB3LYP) =  -839.970665641     A.U. after   14 cycles
 SCF Done:  E(RB3LYP) =  -839.971889121     A.U. after   13 cycles
 SCF Done:  E(RB3LYP) =  -839.976818723     A.U. after   12 cycles
 SCF Done:  E(RB3LYP) =  -839.976082451     A.U. after   14 cycles
 SCF Done:  E(RB3LYP) =  -839.978099112     A.U. after   11 cycles
 SCF Done:  E(RB3LYP) =  -839.979358536     A.U. after   12 cycles
 SCF Done:  E(RB3LYP) =  -839.980534467     A.U. after   12 cycles
 SCF Done:  E(RB3LYP) =  -839.984070749     A.U. after   12 cycles
 SCF Done:  E(RB3LYP) =  -839.984198872     A.U. after   11 cycles
 SCF Done:  E(RB3LYP) =  -839.984207846     A.U. after    8 cycles
 SCF Done:  E(RB3LYP) =  -839.984215207     A.U. after    7 cycles
 SCF Done:  E(RB3LYP) =  -839.984220041     A.U. after    9 cycles
 SCF Done:  E(RB3LYP) =  -839.984221197     A.U. after    7 cycles
 SCF Done:  E(RB3LYP) =  -839.984222371     A.U. after    8 cycles
 SCF Done:  E(RB3LYP) =  -839.984222829     A.U. after    7 cycles
 SCF Done:  E(RB3LYP) =  -839.984223022     A.U. after    7 cycles
 Optimization completed.
    -- Stationary point found.
 Normal termination of Gaussian 09 at Tue Jan 17 02:10:59 2017.

 --------------------------------------------------------------------
 #N Geom=AllCheck Guess=TCheck SCRF=Check GenChk RB3LYP/6-31G(d) Freq
 --------------------------------------------------------------------

 Structure from the checkpoint file:  "/scratch/10467669.yak.local/Gau-11393.chk"
 ------------------------
 boat2_Beta_B3LYP_6-31G_d
 ------------------------
 Charge =  0 Multiplicity = 1

                         Standard orientation:
 ---------------------------------------------------------------------
 Center     Atomic      Atomic             Coordinates (Angstroms)
 Number     Number       Type             X           Y           Z
 ---------------------------------------------------------------------
      1          1           0        0.178875    1.484477   -1.601885
      2          6           0        0.605112    1.158546   -0.637200
      3          6           0       -0.681847   -0.354282    0.956969
      4          6           0        0.570153   -1.252486   -1.115552
      5          6           0       -0.617304   -1.456486   -0.123609
      6          8           0        1.314872   -0.052831   -0.824608
      7          6           0       -0.585048    1.050286    0.356116
      8          1           0       -1.644697   -0.430091    1.479339
      9          1           0        0.133591   -1.172587   -2.118773
     10          1           0       -0.448516   -2.421032    0.389979
     11          1           0       -0.403802    1.738020    1.192453
     12          6           0        1.617527    2.209162   -0.201286
     13          1           0        2.449750    2.230387   -0.918155
     14          1           0        2.017658    1.948185    0.790074
     15          8           0        1.475567   -2.293754   -1.139022
     16          1           0        1.947281   -2.300483   -0.272922
     17          8           0        0.907989    3.446420   -0.173522
     18          1           0        1.493018    4.126264    0.191370
     19          8           0       -1.783135   -1.499724   -0.914350
     20          1           0       -2.581703   -1.394601   -0.356796
     21          8           0        0.385294   -0.470358    1.910965
     22          1           0        0.230229   -1.281178    2.422223
     23          8           0       -1.833044    1.391812   -0.252880
     24          1           0       -1.766039    2.320216   -0.527366
     25          1           0        3.392334   -1.072222    0.508083
     26          8           0        2.893113   -1.590680    1.158954
     27          1           0        2.145245   -0.996958    1.379296
     28          8           0       -3.976339   -0.328270    0.322818
     29          1           0       -3.413791    0.438882    0.087697
     30          1           0       -4.255516   -0.166647    1.235906
 ---------------------------------------------------------------------

 SCF Done:  E(RB3LYP) =  -839.984223022     A.U. after    1 cycles

 The electronic state is 1-A.
 Alpha  occ. eigenvalues --  -19.18492 -19.17682 -19.16816 -19.15379 -19.15040
 Alpha  occ. eigenvalues --  -19.14250 -19.12656 -19.12586 -10.27283 -10.25546
 Alpha  occ. eigenvalues --  -10.25292 -10.24700 -10.24677 -10.23244  -1.06741
 Alpha  occ. eigenvalues --   -1.04962  -1.04526  -1.03743  -1.01125  -1.00244
 Alpha  occ. eigenvalues --   -0.99989  -0.98877  -0.78703  -0.76293  -0.69456
 Alpha  occ. eigenvalues --   -0.64862  -0.62803  -0.57349  -0.56148  -0.54977
 Alpha  occ. eigenvalues --   -0.53574  -0.52040  -0.51910  -0.51351  -0.49668
 Alpha  occ. eigenvalues --   -0.48262  -0.45883  -0.45242  -0.44354  -0.42747
 Alpha  occ. eigenvalues --   -0.42093  -0.40553  -0.39153  -0.38320  -0.37643
 Alpha  occ. eigenvalues --   -0.36879  -0.36269  -0.34337  -0.33978  -0.32968
 Alpha  occ. eigenvalues --   -0.31566  -0.30117  -0.29915  -0.29359  -0.28573
 Alpha  occ. eigenvalues --   -0.27334  -0.25186  -0.24498
 Alpha virt. eigenvalues --    0.02948   0.04883   0.05730   0.08167   0.09216
 Alpha virt. eigenvalues --    0.10424   0.10876   0.12625   0.13732   0.15159
 Alpha virt. eigenvalues --    0.15215   0.16500   0.17185   0.17659   0.18783

 Mulliken charges:
               1
     1  H    0.139079
     2  C    0.143764
     3  C    0.064051
     4  C    0.345666
     5  C    0.091783
     6  O   -0.536398
     7  C    0.113471
     8  H    0.121662
     9  H    0.157434
    10  H    0.113687
    11  H    0.151422
    12  C   -0.069867
    13  H    0.147757
    14  H    0.138178
    15  O   -0.643467
    16  H    0.410037
    17  O   -0.634731
    18  H    0.405011
    19  O   -0.661308
    20  H    0.428829
    21  O   -0.637944
    22  H    0.413673
    23  O   -0.649999
    24  H    0.416190
    25  H    0.399176
    26  O   -0.813828
    27  H    0.426712
    28  O   -0.804783
    29  H    0.433952
    30  H    0.390792
 Sum of Mulliken charges =  -0.00000

 Dipole moment (field-independent basis, Debye):
    X=             -0.2602    Y=              5.3004    Z=              4.1615  Tot=              6.7439
 Quadrupole moment (field-independent basis, Debye-Ang):
   XX=            -84.5260   YY=            -79.9852   ZZ=            -83.1691
   XY=              6.3586   XZ=             -8.9587   YZ=             -5.5591

  Exact polarizability: 101.826   0.001  99.201  -0.077  -0.804  82.661
 Approx polarizability: 134.295  -3.450 129.374   3.987  -1.074 121.307

 ******    1 imaginary frequencies (negative Signs) ******

                      1                      2                      3
                      A                      A                      A
 Frequencies --    -49.2710                37.4036                80.2048
 Red. masses --      5.1297                 5.9878                 5.7526
 Frc consts  --      0.0073                 0.0049                 0.0218
 IR Inten    --      1.2447                 4.0537                 1.7393

                      4                      5                      6
                      A                      A                      A
 Frequencies --    106.1548               109.5769               123.7189
 Red. masses --      4.1136                 6.0742                 4.0938
 Frc consts  --      0.0273                 0.0430                 0.0369
 IR Inten    --     15.4893                 8.6415                 8.9848

                      7                      8                      9
                      A                      A                      A
 Frequencies --    148.8768               168.8328               187.4875
 Red. masses --      5.0925                 4.6217                 3.8128
 Frc consts  --      0.0665                 0.0776                 0.0790
 IR Inten    --     12.5202                 3.3616                 6.5452

                     10                     11                     12
                      A                      A                      A
 Frequencies --    199.0475               217.3879               224.4841
 Red. masses --      2.2303                 2.5075                 4.7587
 Frc consts  --      0.0521                 0.0698                 0.1413
 IR Inten    --    114.5952                25.6224                33.0810

                     13                     14                     15
                      A                      A                      A
 Frequencies --    238.9655               246.2597               254.4570
 Red. masses --      4.2860                 1.6594                 1.4149
 Frc consts  --      0.1442                 0.0593                 0.0540
 IR Inten    --      0.5682                67.1047                56.3037

                     16                     17                     18
                      A                      A                      A
 Frequencies --    263.8716               296.2639               326.0656
 Red. masses --      1.5419                 1.1388                 2.2720
 Frc consts  --      0.0633                 0.0589                 0.1423
 IR Inten    --     67.2955               100.0844                94.3074

                     19                     20                     21
                      A                      A                      A
 Frequencies --    333.1220               360.9131               376.8605
 Red. masses --      1.2987                 1.5621                 2.8108
 Frc consts  --      0.0849                 0.1199                 0.2352
 IR Inten    --     58.3044               129.5357                24.2126

                     22                     23                     24
                      A                      A                      A
 Frequencies --    384.8756               402.6667               451.0371
 Red. masses --      3.3368                 4.3945                 3.9221
 Frc consts  --      0.2912                 0.4198                 0.4701
 IR Inten    --     42.5507                10.7227                11.6165

                     25                     26                     27
                      A                      A                      A
 Frequencies --    458.5552               475.7419               504.9806
 Red. masses --      1.4373                 2.9062                 5.4483
 Frc consts  --      0.1781                 0.3875                 0.8186
 IR Inten    --      4.6590                16.5819                12.0033

                     28                     29                     30
                      A                      A                      A
 Frequencies --    537.7505               564.1018               621.8096
 Red. masses --      4.7494                 5.2668                 1.1289
 Frc consts  --      0.8092                 0.9874                 0.2572
 IR Inten    --     13.1794                13.3362               289.1906

                     31                     32                     33
                      A                      A                      A
 Frequencies --    654.8926               731.6463               800.8381
 Red. masses --      4.7426                 1.1249                 3.6073
 Frc consts  --      1.1984                 0.3548                 1.3631
 IR Inten    --      4.3387               192.8748                18.0283

                     34                     35                     36
                      A                      A                      A
 Frequencies --    838.0336               854.7225               863.9776
 Red. masses --      1.2200                 1.4371                 1.4375
 Frc consts  --      0.5048                 0.6186                 0.6322
 IR Inten    --     88.0127                13.9387               132.8334

                     37                     38                     39
                      A                      A                      A
 Frequencies --    910.4050               963.2206              1023.1705
 Red. masses --      3.2277                 3.1867                 2.1562
 Frc consts  --      1.5762                 1.7420                 1.3299
 IR Inten    --     27.2797                46.4783                31.3509

                     40                     41                     42
                      A                      A                      A
 Frequencies --   1061.8473              1069.5761              1079.3882
 Red. masses --      5.3309                 3.2812                 5.3697
 Frc consts  --      3.5414                 2.2116                 3.6860
 IR Inten    --    123.7307                38.0027                75.0482

                     43                     44                     45
                      A                      A                      A
 Frequencies --   1094.9958              1106.6063              1128.5836
 Red. masses --      4.4097                 2.1455                 2.5924
 Frc consts  --      3.1152                 1.5480                 1.9455
 IR Inten    --    170.6998                47.1072                36.4942

                     46                     47                     48
                      A                      A                      A
 Frequencies --   1135.2120              1148.3355              1184.0122
 Red. masses --      3.7027                 3.3538                 2.8831
 Frc consts  --      2.8114                 2.6057                 2.3814
 IR Inten    --     35.0927                83.6972               129.3938

                     49                     50                     51
                      A                      A                      A
 Frequencies --   1230.7796              1248.5277              1257.5091
 Red. masses --      1.2317                 1.1437                 1.1651
 Frc consts  --      1.0993                 1.0504                 1.0855
 IR Inten    --     43.7853                47.2008                46.1007

                     52                     53                     54
                      A                      A                      A
 Frequencies --   1265.5985              1280.3844              1329.9027
 Red. masses --      1.2565                 1.1238                 1.1984
 Frc consts  --      1.1858                 1.0855                 1.2488
 IR Inten    --     17.4213                26.8153                25.3346

                     55                     56                     57
                      A                      A                      A
 Frequencies --   1349.6468              1360.9717              1371.9375
 Red. masses --      1.2311                 1.2005                 1.3390
 Frc consts  --      1.3212                 1.3101                 1.4850
 IR Inten    --     10.4291                 1.2454                28.0101

                     58                     59                     60
                      A                      A                      A
 Frequencies --   1394.2543              1398.7976              1422.4041
 Red. masses --      1.3479                 1.3999                 1.2977
 Frc consts  --      1.5438                 1.6138                 1.5470
 IR Inten    --      4.5286                27.7788                21.9248

                     61                     62                     63
                      A                      A                      A
 Frequencies --   1434.4587              1470.0766              1473.3421
 Red. masses --      1.4403                 1.5651                 1.4254
 Frc consts  --      1.7461                 1.9929                 1.8230
 IR Inten    --      2.3306                13.8773                22.4327

                     64                     65                     66
                      A                      A                      A
 Frequencies --   1490.2190              1508.8248              1555.3335
 Red. masses --      1.5616                 1.1895                 1.0840
 Frc consts  --      2.0433                 1.5955                 1.5450
 IR Inten    --     12.2498                84.8885                 4.1687

                     67                     68                     69
                      A                      A                      A
 Frequencies --   1709.5308              1739.6249              2949.8605
 Red. masses --      1.0781                 1.0775                 1.0835
 Frc consts  --      1.8564                 1.9212                 5.5550
 IR Inten    --     53.0865                94.2324                76.6777

                     70                     71                     72
                      A                      A                      A
 Frequencies --   2977.9752              3016.0495              3040.8104
 Red. masses --      1.0828                 1.0576                 1.0837
 Frc consts  --      5.6577                 5.6684                 5.9038
 IR Inten    --     32.2450                45.8749                34.6699

                     73                     74                     75
                      A                      A                      A
 Frequencies --   3048.9944              3062.7914              3066.8375
 Red. masses --      1.0860                 1.1073                 1.0874
 Frc consts  --      5.9484                 6.1201                 6.0261
 IR Inten    --     37.8539                55.3648                44.1610

                     76                     77                     78
                      A                      A                      A
 Frequencies --   3454.9624              3559.8532              3599.4738
 Red. masses --      1.0664                 1.0643                 1.0566
 Frc consts  --      7.5001                 7.9462                 8.0659
 IR Inten    --    273.7073               128.5856               370.3241

                     79                     80                     81
                      A                      A                      A
 Frequencies --   3606.4853              3738.3331              3746.6867
 Red. masses --      1.0588                 1.0663                 1.0664
 Frc consts  --      8.1139                 8.7795                 8.8200
 IR Inten    --    429.2264                32.9233                41.3456

                     82                     83                     84
                      A                      A                      A
 Frequencies --   3770.9616              3789.4705              3809.3049
 Red. masses --      1.0667                 1.0704                 1.0724
 Frc consts  --      8.9373                 9.0562                 9.1689
 IR Inten    --     29.6371                61.5767                66.2163

 - Thermochemistry -
 -------------------
 Temperature   298.150 Kelvin.  Pressure   1.00000 Atm.
 Atom     1 has atomic number  1 and mass   1.00783

 Molecular mass:   216.08452 amu.
 Principal axes and moments of inertia in atomic units:
                           1         2         3
     Eigenvalues --  2711.668583151.617054553.01260
           X            0.99922   0.03916  -0.00593
           Y           -0.03922   0.99917  -0.01108
           Z            0.00549   0.01130   0.99992
 This molecule is an asymmetric top.
 Rotational symmetry number  1.
 Warning -- assumption of classical behavior for rotation
           may cause significant error
 Rotational temperatures (Kelvin)      0.03194     0.02748     0.01902
 Rotational constants (GHZ):           0.66555     0.57264     0.39638
    1 imaginary frequencies ignored.
 Zero-point vibrational energy     651258.5 (Joules/Mol)
                                  155.65451 (Kcal/Mol)
 Warning -- explicit consideration of  28 degrees of freedom as
           vibrations may cause significant error
 Vibrational temperatures:     53.82   115.40   152.73   157.66   178.00
          (Kelvin)            214.20   242.91   269.75   286.38   312.77
                              322.98   343.82   354.31   366.11   379.65
                              426.26   469.14   479.29   519.27   542.22
                              553.75   579.35   648.94   659.76   684.49
                              726.55   773.70   811.62   894.64   942.24
                             1052.67  1152.23  1205.74  1229.75  1243.07
                             1309.87  1385.86  1472.11  1527.76  1538.88
                             1553.00  1575.45  1592.16  1623.78  1633.31
                             1652.20  1703.53  1770.82  1796.35  1809.27
                             1820.91  1842.19  1913.43  1941.84  1958.13
                             1973.91  2006.02  2012.56  2046.52  2063.86
                             2115.11  2119.81  2144.09  2170.86  2237.78
                             2459.63  2502.93  4244.19  4284.64  4339.42
                             4375.04  4386.82  4406.67  4412.49  4970.91
                             5121.83  5178.83  5188.92  5378.62  5390.64
                             5425.57  5452.20  5480.73

 Zero-point correction=                           0.248051 (Hartree/Particle)
 Thermal correction to Energy=                    0.265072
 Thermal correction to Enthalpy=                  0.266016
 Thermal correction to Gibbs Free Energy=         0.204982
 Sum of electronic and zero-point Energies=           -839.736172
 Sum of electronic and thermal Energies=              -839.719151
 Sum of electronic and thermal Enthalpies=            -839.718207
 Sum of electronic and thermal Free Energies=         -839.779241

                     E (Thermal)             CV                S
                      KCal/Mol        Cal/Mol-Kelvin    Cal/Mol-Kelvin
 Total                  166.335             63.271            128.456
 Electronic               0.000              0.000              0.000
 Translational            0.889              2.981             42.015
 Rotational               0.889              2.981             32.031
 Vibrational            164.558             57.309             54.410
 Vibration     1          0.594              1.982              5.392
 Vibration     2          0.600              1.963              3.886
 Vibration     3          0.605              1.944              3.338
 Vibration     4          0.606              1.942              3.276
 Vibration     5          0.610              1.929              3.041
 Vibration     6          0.618              1.904              2.687
 Vibration     7          0.625              1.881              2.448
 Vibration     8          0.632              1.857              2.253
 Vibration     9          0.637              1.841              2.142
 Vibration    10          0.646              1.815              1.981
 Vibration    11          0.649              1.804              1.923
 Vibration    12          0.657              1.781              1.811
 Vibration    13          0.661              1.769              1.757
 Vibration    14          0.665              1.755              1.699
 Vibration    15          0.670              1.739              1.636
 Vibration    16          0.690              1.681              1.438
 Vibration    17          0.710              1.623              1.280
 Vibration    18          0.715              1.609              1.245
 Vibration    19          0.735              1.553              1.118
 Vibration    20          0.747              1.519              1.052
 Vibration    21          0.754              1.502              1.020
 Vibration    22          0.768              1.464              0.953
 Vibration    23          0.810              1.359              0.793
 Vibration    24          0.817              1.342              0.770
 Vibration    25          0.832              1.304              0.722
 Vibration    26          0.860              1.239              0.646
 Vibration    27          0.893              1.167              0.570
 Vibration    28          0.920              1.109              0.516

 Normal termination of Gaussian 09 at Tue Jan 17 02:30:34 2017.
