 Gaussian 09, Revision D.01,
 Gaussian 09:  ES64L-G09RevD.01 24-Apr-2013

 ------------------------------------------------------
 # opt=(modredundant,MaxCycle=1000) freq B3LYP/6-31G(d)
 ------------------------------------------------------

 -------------------------
 boat5_Alpha_B3LYP_6-31G_d
 -------------------------
 Symbolic Z-matrix:
 Charge =  0 Multiplicity = 1

 SCF Done:  E(RB3LYP) =  -839.934934834     A.U. after   14 cycles
 SCF Done:  E(RB3LYP) =  -839.951900510     A.U. after   12 cycles
 SCF Done:  E(RB3LYP) =  -839.968036103     A.U. after   12 cycles
 SCF Done:  E(RB3LYP) =  -839.975003009     A.U. after   11 cycles
 SCF Done:  E(RB3LYP) =  -839.981126789     A.U. after   11 cycles
 SCF Done:  E(RB3LYP) =  -839.984656005     A.U. after   11 cycles
 SCF Done:  E(RB3LYP) =  -839.986755249     A.U. after   11 cycles
 SCF Done:  E(RB3LYP) =  -839.987237065     A.U. after   11 cycles
 SCF Done:  E(RB3LYP) =  -839.987689616     A.U. after   11 cycles
 SCF Done:  E(RB3LYP) =  -839.988158209     A.U. after   11 cycles
 SCF Done:  E(RB3LYP) =  -839.990062899     A.U. after    7 cycles
 SCF Done:  E(RB3LYP) =  -839.990063421     A.U. after    7 cycles
 SCF Done:  E(RB3LYP) =  -839.990063698     A.U. after    7 cycles
 SCF Done:  E(RB3LYP) =  -839.990063970     A.U. after    6 cycles
 SCF Done:  E(RB3LYP) =  -839.990064261     A.U. after    6 cycles
 SCF Done:  E(RB3LYP) =  -839.990064414     A.U. after    6 cycles
 SCF Done:  E(RB3LYP) =  -839.990064478     A.U. after    6 cycles
 SCF Done:  E(RB3LYP) =  -839.990064472     A.U. after    6 cycles
 SCF Done:  E(RB3LYP) =  -839.990064408     A.U. after    6 cycles
 Optimization completed.
    -- Stationary point found.
 Normal termination of Gaussian 09 at Mon Jan 23 16:59:17 2017.

 --------------------------------------------------------------------
 #N Geom=AllCheck Guess=TCheck SCRF=Check GenChk RB3LYP/6-31G(d) Freq
 --------------------------------------------------------------------

 Structure from the checkpoint file:  "/home/iawad/Gau-15321.chk"
 -------------------------
 boat5_Alpha_B3LYP_6-31G_d
 -------------------------
 Charge =  0 Multiplicity = 1

                         Standard orientation:
 ---------------------------------------------------------------------
 Center     Atomic      Atomic             Coordinates (Angstroms)
 Number     Number       Type             X           Y           Z
 ---------------------------------------------------------------------
      1          8           0       -1.376335    0.170942   -0.833160
      2          6           0       -0.007680    0.791870    1.167207
      3          6           0        0.731652   -1.077796   -0.444408
      4          6           0        1.181166    0.059660    0.523624
      5          6           0       -0.788571   -1.131761   -0.671120
      6          6           0       -0.981563    1.242892    0.062306
      7          1           0        1.735388   -0.418576    1.341541
      8          1           0       -1.898227    1.584175    0.562392
      9          1           0        0.363608    1.695908    1.662552
     10          1           0        1.142785   -0.779847   -1.422505
     11          6           0       -0.424429    2.358331   -0.853388
     12          1           0       -1.252544    2.885605   -1.345500
     13          1           0        0.187326    1.896453   -1.627970
     14          8           0        0.441631    3.284421   -0.188239
     15          1           0       -0.078402    3.804645    0.444301
     16          8           0        1.197647   -2.348802   -0.074992
     17          1           0        2.170388   -2.289787   -0.193487
     18          8           0        2.058034    0.935830   -0.198501
     19          1           0        1.898421    1.860314    0.068436
     20          8           0       -0.627093    0.037364    2.180849
     21          1           0       -0.966902   -0.788563    1.768371
     22          1           0       -1.007243   -1.630235   -1.620537
     23          8           0       -1.403045   -1.829568    0.386528
     24          1           0       -2.367678   -1.850397    0.179437
     25          8           0        3.813869   -1.274533   -0.471388
     26          1           0        4.371980   -1.310796    0.319804
     27          1           0        3.473942   -0.356191   -0.489368
     28          8           0       -3.898899   -1.066578   -0.520340
     29          1           0       -4.395329   -0.674052    0.214237
     30          1           0       -3.287434   -0.360445   -0.813094
 ---------------------------------------------------------------------

 SCF Done:  E(RB3LYP) =  -839.990064408     A.U. after    1 cycles

 The electronic state is 1-A.
 Alpha  occ. eigenvalues --  -19.18233 -19.17674 -19.16419 -19.16212 -19.15450
 Alpha  occ. eigenvalues --  -19.14962 -19.13187 -19.12457 -10.29333 -10.25418
 Alpha  occ. eigenvalues --  -10.25028 -10.24465 -10.23787 -10.23477  -1.07829
 Alpha  occ. eigenvalues --   -1.05017  -1.03329  -1.02135  -1.01256  -1.00989
 Alpha  occ. eigenvalues --   -1.00530  -0.99830  -0.78386  -0.76370  -0.69863
 Alpha  occ. eigenvalues --   -0.65856  -0.63708  -0.56705  -0.56261  -0.54354
 Alpha  occ. eigenvalues --   -0.54034  -0.53086  -0.51582  -0.50218  -0.49762
 Alpha  occ. eigenvalues --   -0.48142  -0.46462  -0.45439  -0.44040  -0.42682
 Alpha  occ. eigenvalues --   -0.41581  -0.41160  -0.39693  -0.39179  -0.38892
 Alpha  occ. eigenvalues --   -0.37146  -0.36230  -0.34715  -0.33663  -0.32802
 Alpha  occ. eigenvalues --   -0.31356  -0.31292  -0.30056  -0.29721  -0.28833
 Alpha  occ. eigenvalues --   -0.27089  -0.25975  -0.24896
 Alpha virt. eigenvalues --    0.03591   0.04664   0.06527   0.08098   0.09383
 Alpha virt. eigenvalues --    0.10964   0.11272   0.12862   0.13921   0.15214
 Alpha virt. eigenvalues --    0.15577   0.16963   0.17579   0.18610   0.19050

 Mulliken charges:
               1
     1  O   -0.548657
     2  C    0.085756
     3  C    0.108002
     4  C    0.095235
     5  C    0.300687
     6  C    0.095449
     7  H    0.141576
     8  H    0.126241
     9  H    0.123812
    10  H    0.141998
    11  C   -0.070821
    12  H    0.145169
    13  H    0.186233
    14  O   -0.623155
    15  H    0.403163
    16  O   -0.645926
    17  H    0.425135
    18  O   -0.683782
    19  H    0.432115
    20  O   -0.663631
    21  H    0.430268
    22  H    0.158158
    23  O   -0.642406
    24  H    0.427872
    25  O   -0.806287
    26  H    0.396041
    27  H    0.433571
    28  O   -0.794090
    29  H    0.400095
    30  H    0.422179
 Sum of Mulliken charges =   0.00000

 Dipole moment (field-independent basis, Debye):
    X=             -1.0845    Y=              4.9715    Z=              0.8569  Tot=              5.1601
 Quadrupole moment (field-independent basis, Debye-Ang):
   XX=            -73.0939   YY=            -84.5294   ZZ=            -89.0545
   XY=             -5.6291   XZ=              3.4056   YZ=              1.7556

  Exact polarizability: 101.145  -2.111  99.416   0.374   1.282  80.698
 Approx polarizability: 129.286   0.137 135.599  -1.705   0.414 121.606

                      1                      2                      3
                      A                      A                      A
 Frequencies --     20.7400                44.3835                61.1211
 Red. masses --      5.8142                 5.6232                 5.2587
 Frc consts  --      0.0015                 0.0065                 0.0116
 IR Inten    --      0.4060                 3.1007                 9.4682

                      4                      5                      6
                      A                      A                      A
 Frequencies --    103.8506               113.1946               146.8359
 Red. masses --      4.4463                 4.9808                 6.4323
 Frc consts  --      0.0283                 0.0376                 0.0817
 IR Inten    --     10.6878                 0.3378                11.5249

                      7                      8                      9
                      A                      A                      A
 Frequencies --    153.0830               168.7437               193.9833
 Red. masses --      3.3226                 6.3892                 7.5166
 Frc consts  --      0.0459                 0.1072                 0.1666
 IR Inten    --      2.3352                 3.7792                 0.8980

                     10                     11                     12
                      A                      A                      A
 Frequencies --    214.1274               240.4991               255.9713
 Red. masses --      4.6660                 4.4225                 1.9561
 Frc consts  --      0.1260                 0.1507                 0.0755
 IR Inten    --      9.6598                 6.4986               115.8301

                     13                     14                     15
                      A                      A                      A
 Frequencies --    263.1210               277.8814               293.0946
 Red. masses --      2.1674                 2.8259                 1.5458
 Frc consts  --      0.0884                 0.1286                 0.0782
 IR Inten    --     65.1038                19.2442                62.3389

                     16                     17                     18
                      A                      A                      A
 Frequencies --    309.4228               330.6109               359.9754
 Red. masses --      1.7173                 2.0268                 1.2127
 Frc consts  --      0.0969                 0.1305                 0.0926
 IR Inten    --     53.8934                48.2012                69.1337

                     19                     20                     21
                      A                      A                      A
 Frequencies --    368.6230               373.8949               383.2948
 Red. masses --      1.4897                 3.2140                 2.6756
 Frc consts  --      0.1193                 0.2647                 0.2316
 IR Inten    --     67.2293                18.5276                35.2562

                     22                     23                     24
                      A                      A                      A
 Frequencies --    405.0644               451.8540               479.5238
 Red. masses --      3.0417                 6.0385                 3.1504
 Frc consts  --      0.2940                 0.7264                 0.4268
 IR Inten    --     43.0785                 6.6817                20.5618

                     25                     26                     27
                      A                      A                      A
 Frequencies --    508.4997               544.9127               587.8431
 Red. masses --      5.6199                 1.3873                 4.0042
 Frc consts  --      0.8562                 0.2427                 0.8152
 IR Inten    --     32.7166                90.9179                 1.4367

                     28                     29                     30
                      A                      A                      A
 Frequencies --    606.8107               627.9740               673.6998
 Red. masses --      1.9485                 1.5790                 1.9358
 Frc consts  --      0.4227                 0.3669                 0.5177
 IR Inten    --    131.1366                32.6103                96.2894

                     31                     32                     33
                      A                      A                      A
 Frequencies --    694.4663               704.0624               740.8777
 Red. masses --      1.0784                 1.6118                 1.0978
 Frc consts  --      0.3064                 0.4707                 0.3550
 IR Inten    --    236.1036                68.4352               238.5805

                     34                     35                     36
                      A                      A                      A
 Frequencies --    777.2699               838.6413               872.5101
 Red. masses --      2.8365                 2.7833                 1.3703
 Frc consts  --      1.0097                 1.1534                 0.6146
 IR Inten    --     21.8358                48.6206               108.5018

                     37                     38                     39
                      A                      A                      A
 Frequencies --    890.3978               951.5654               989.6583
 Red. masses --      2.7164                 3.5317                 3.1719
 Frc consts  --      1.2688                 1.8841                 1.8304
 IR Inten    --     15.5144                65.5694                89.7081

                     40                     41                     42
                      A                      A                      A
 Frequencies --   1020.2800              1026.8958              1074.4317
 Red. masses --      2.0830                 4.0303                 4.9648
 Frc consts  --      1.2775                 2.5040                 3.3768
 IR Inten    --     71.4162                48.2271               140.0622

                     43                     44                     45
                      A                      A                      A
 Frequencies --   1087.4426              1100.8791              1115.0016
 Red. masses --      4.2447                 4.2495                 2.2546
 Frc consts  --      2.9574                 3.0344                 1.6515
 IR Inten    --     12.1220                34.4432                29.3054

                     46                     47                     48
                      A                      A                      A
 Frequencies --   1136.1177              1152.3378              1163.8799
 Red. masses --      4.0076                 4.0225                 3.4905
 Frc consts  --      3.0478                 3.1471                 2.7858
 IR Inten    --     32.5255                62.1107               116.6739

                     49                     50                     51
                      A                      A                      A
 Frequencies --   1208.1097              1260.6963              1310.6629
 Red. masses --      1.3702                 1.3006                 1.1172
 Frc consts  --      1.1783                 1.2179                 1.1308
 IR Inten    --     59.3973                21.7954                24.6678

                     52                     53                     54
                      A                      A                      A
 Frequencies --   1330.1709              1338.5804              1348.4440
 Red. masses --      1.1812                 1.1536                 1.1587
 Frc consts  --      1.2314                 1.2178                 1.2414
 IR Inten    --     52.4610                13.7993                 4.4535

                     55                     56                     57
                      A                      A                      A
 Frequencies --   1360.2806              1369.2476              1388.4443
 Red. masses --      1.1841                 1.2926                 1.2412
 Frc consts  --      1.2909                 1.4278                 1.4097
 IR Inten    --     18.4839                14.6936                29.0577

                     58                     59                     60
                      A                      A                      A
 Frequencies --   1389.8111              1412.4980              1426.7866
 Red. masses --      1.3200                 1.2229                 1.3245
 Frc consts  --      1.5022                 1.4375                 1.5887
 IR Inten    --      5.4514                10.8057                 6.7895

                     61                     62                     63
                      A                      A                      A
 Frequencies --   1434.9569              1437.8203              1495.6636
 Red. masses --      1.2808                 1.4388                 1.2792
 Frc consts  --      1.5538                 1.7525                 1.6860
 IR Inten    --     20.0906                23.7048                 9.6416

                     64                     65                     66
                      A                      A                      A
 Frequencies --   1528.5954              1532.7556              1544.3796
 Red. masses --      1.0781                 1.2089                 1.3855
 Frc consts  --      1.4842                 1.6734                 1.9470
 IR Inten    --      3.7880                53.9815                84.4140

                     67                     68                     69
                      A                      A                      A
 Frequencies --   1725.6875              1727.8352              2991.9832
 Red. masses --      1.0778                 1.0753                 1.0833
 Frc consts  --      1.8911                 1.8914                 5.7135
 IR Inten    --     55.9025                50.9585                25.5180

                     70                     71                     72
                      A                      A                      A
 Frequencies --   3030.7389              3046.7889              3050.6959
 Red. masses --      1.0845                 1.0843                 1.0742
 Frc consts  --      5.8691                 5.9304                 5.8904
 IR Inten    --     30.3632                59.1651                42.1148

                     73                     74                     75
                      A                      A                      A
 Frequencies --   3074.5849              3093.6413              3165.9843
 Red. masses --      1.0849                 1.0883                 1.0954
 Frc consts  --      6.0425                 6.1366                 6.4691
 IR Inten    --     48.6785                36.1280                10.7385

                     76                     77                     78
                      A                      A                      A
 Frequencies --   3449.0941              3502.6532              3548.9165
 Red. masses --      1.0670                 1.0658                 1.0645
 Frc consts  --      7.4787                 7.7040                 7.8994
 IR Inten    --    499.7121               187.6577               182.9938

                     79                     80                     81
                      A                      A                      A
 Frequencies --   3605.9357              3608.6469              3656.6449
 Red. masses --      1.0565                 1.0548                 1.0669
 Frc consts  --      8.0936                 8.0930                 8.4049
 IR Inten    --    464.2344               202.9757                91.2723

                     82                     83                     84
                      A                      A                      A
 Frequencies --   3742.9166              3800.7530              3805.1071
 Red. masses --      1.0665                 1.0734                 1.0726
 Frc consts  --      8.8029                 9.1358                 9.1497
 IR Inten    --     22.9810                77.2596                67.3118

 - Thermochemistry -
 -------------------
 Temperature   298.150 Kelvin.  Pressure   1.00000 Atm.
 Atom     1 has atomic number  8 and mass  15.99491

 Molecular mass:   216.08452 amu.
 Principal axes and moments of inertia in atomic units:
                           1         2         3
     Eigenvalues --  2497.261533296.751004697.64369
           X            0.99975  -0.02229   0.00356
           Y            0.02228   0.99975   0.00085
           Z           -0.00358  -0.00077   0.99999
 This molecule is an asymmetric top.
 Rotational symmetry number  1.
 Warning -- assumption of classical behavior for rotation
           may cause significant error
 Rotational temperatures (Kelvin)      0.03468     0.02627     0.01844
 Rotational constants (GHZ):           0.72269     0.54743     0.38418
 Zero-point vibrational energy     655827.9 (Joules/Mol)
                                  156.74663 (Kcal/Mol)
 Warning -- explicit consideration of  28 degrees of freedom as
           vibrations may cause significant error
 Vibrational temperatures:     29.84    63.86    87.94   149.42   162.86
          (Kelvin)            211.26   220.25   242.78   279.10   308.08
                              346.02   368.29   378.57   399.81   421.70
                              445.19   475.67   517.92   530.37   537.95
                              551.48   582.80   650.12   689.93   731.62
                              784.01   845.77   873.06   903.51   969.30
                              999.18  1012.99  1065.96  1118.32  1206.62
                             1255.35  1281.08  1369.09  1423.90  1467.95
                             1477.47  1545.87  1564.59  1583.92  1604.24
                             1634.62  1657.96  1674.56  1738.20  1813.86
                             1885.75  1913.82  1925.92  1940.11  1957.14
                             1970.04  1997.66  1999.63  2032.27  2052.83
                             2064.58  2068.70  2151.92  2199.31  2205.29
                             2222.02  2482.88  2485.97  4304.79  4360.55
                             4383.64  4389.27  4423.64  4451.05  4555.14
                             4962.47  5039.53  5106.09  5188.13  5192.03
                             5261.09  5385.22  5468.43  5474.69

 Zero-point correction=                           0.249792 (Hartree/Particle)
 Thermal correction to Energy=                    0.266958
 Thermal correction to Enthalpy=                  0.267902
 Thermal correction to Gibbs Free Energy=         0.205309
 Sum of electronic and zero-point Energies=           -839.740273
 Sum of electronic and thermal Energies=              -839.723107
 Sum of electronic and thermal Enthalpies=            -839.722163
 Sum of electronic and thermal Free Energies=         -839.784755

                     E (Thermal)             CV                S
                      KCal/Mol        Cal/Mol-Kelvin    Cal/Mol-Kelvin
 Total                  167.518             63.841            131.738
 Electronic               0.000              0.000              0.000
 Translational            0.889              2.981             42.015
 Rotational               0.889              2.981             32.025
 Vibrational            165.741             57.880             57.697
 Vibration     1          0.593              1.986              6.562
 Vibration     2          0.595              1.980              5.053
 Vibration     3          0.597              1.973              4.421
 Vibration     4          0.605              1.946              3.381
 Vibration     5          0.607              1.939              3.213
 Vibration     6          0.617              1.906              2.713
 Vibration     7          0.619              1.899              2.634
 Vibration     8          0.625              1.881              2.449
 Vibration     9          0.635              1.848              2.189
 Vibration    10          0.644              1.819              2.008
 Vibration    11          0.658              1.778              1.799
 Vibration    12          0.666              1.753              1.689
 Vibration    13          0.670              1.740              1.641
 Vibration    14          0.679              1.714              1.547
 Vibration    15          0.688              1.687              1.456
 Vibration    16          0.699              1.656              1.365
 Vibration    17          0.713              1.614              1.257
 Vibration    18          0.734              1.555              1.122
 Vibration    19          0.741              1.537              1.086
 Vibration    20          0.745              1.526              1.064
 Vibration    21          0.752              1.506              1.026
 Vibration    22          0.770              1.459              0.944
 Vibration    23          0.811              1.357              0.790
 Vibration    24          0.836              1.295              0.711
 Vibration    25          0.864              1.231              0.637
 Vibration    26          0.900              1.151              0.555
 Vibration    27          0.945              1.058              0.471
 Vibration    28          0.966              1.017              0.438

 Normal termination of Gaussian 09 at Mon Jan 23 17:03:51 2017.
