 Gaussian 09, Revision D.01,
 Gaussian 09:  ES64L-G09RevD.01 24-Apr-2013

 ------------------------------------------------------
 # opt=(modredundant,MaxCycle=1000) freq B3LYP/6-31G(d)
 ------------------------------------------------------

 -------------------------
 boat4_Alpha_B3LYP_6-31G_d
 -------------------------
 Symbolic Z-matrix:
 Charge =  0 Multiplicity = 1

 SCF Done:  E(RB3LYP) =  -839.989393942     A.U. after   14 cycles
 SCF Done:  E(RB3LYP) =  -839.992846715     A.U. after   11 cycles
 SCF Done:  E(RB3LYP) =  -839.995261004     A.U. after   12 cycles
 SCF Done:  E(RB3LYP) =  -839.996911459     A.U. after   12 cycles
 SCF Done:  E(RB3LYP) =  -839.997910526     A.U. after   11 cycles
 SCF Done:  E(RB3LYP) =  -839.997921908     A.U. after    6 cycles
 SCF Done:  E(RB3LYP) =  -839.998037383     A.U. after   11 cycles
 SCF Done:  E(RB3LYP) =  -839.998286243     A.U. after   11 cycles
 SCF Done:  E(RB3LYP) =  -839.998355698     A.U. after    7 cycles
 SCF Done:  E(RB3LYP) =  -839.998444075     A.U. after    9 cycles
 SCF Done:  E(RB3LYP) =  -839.999466526     A.U. after    9 cycles
 SCF Done:  E(RB3LYP) =  -839.999481617     A.U. after    8 cycles
 SCF Done:  E(RB3LYP) =  -839.999501029     A.U. after    9 cycles
 SCF Done:  E(RB3LYP) =  -839.999506630     A.U. after    9 cycles
 SCF Done:  E(RB3LYP) =  -839.999510583     A.U. after    9 cycles
 SCF Done:  E(RB3LYP) =  -839.999513245     A.U. after    9 cycles
 SCF Done:  E(RB3LYP) =  -839.999514372     A.U. after    9 cycles
 SCF Done:  E(RB3LYP) =  -839.999514602     A.U. after    7 cycles
 SCF Done:  E(RB3LYP) =  -839.999514706     A.U. after    7 cycles
 Optimization completed.
    -- Stationary point found.
 Normal termination of Gaussian 09 at Wed Jan 18 21:44:34 2017.

 --------------------------------------------------------------------
 #N Geom=AllCheck Guess=TCheck SCRF=Check GenChk RB3LYP/6-31G(d) Freq
 --------------------------------------------------------------------

 Structure from the checkpoint file:  "/home/iawad/Gau-1823.chk"
 -------------------------
 boat4_Alpha_B3LYP_6-31G_d
 -------------------------
 Charge =  0 Multiplicity = 1

                         Standard orientation:
 ---------------------------------------------------------------------
 Center     Atomic      Atomic             Coordinates (Angstroms)
 Number     Number       Type             X           Y           Z
 ---------------------------------------------------------------------
      1          8           0       -0.681817    0.289402    0.337515
      2          6           0        1.680068    0.231893   -0.357535
      3          6           0        0.394534   -1.920006    0.068558
      4          6           0        1.766572   -1.223630    0.096819
      5          6           0       -0.734498   -0.979422   -0.379512
      6          6           0        0.576200    0.977930    0.404999
      7          1           0        2.110508   -1.228720    1.141389
      8          1           0        0.879360    1.029147    1.462477
      9          1           0        1.450607    0.246729   -1.436327
     10          6           0        0.344640    2.397295   -0.134755
     11          1           0        0.076184    2.344354   -1.194344
     12          1           0       -0.491536    2.869766    0.397850
     13          1           0        0.444431   -2.742419   -0.661134
     14          8           0        1.527184    3.205493   -0.070410
     15          1           0        1.686130    3.428369    0.860900
     16          8           0        0.119014   -2.402106    1.373004
     17          1           0       -0.833099   -2.604946    1.378676
     18          8           0        2.668782   -1.937732   -0.736623
     19          1           0        3.490188   -1.417555   -0.741079
     20          8           0        2.955612    0.811295   -0.121078
     21          1           0        2.869526    1.761180   -0.329615
     22          1           0       -0.659078   -0.761463   -1.454770
     23          8           0       -1.936248   -1.578449   -0.067026
     24          1           0       -2.670302   -1.128844   -0.565769
     25          8           0       -3.839026   -0.075734   -1.249975
     26          1           0       -3.759186    0.630250   -0.558590
     27          1           0       -4.741850   -0.417810   -1.169454
     28          8           0       -3.104606    1.534361    0.818044
     29          1           0       -2.222537    1.098945    0.751015
     30          1           0       -3.465603    1.216418    1.659728
 ---------------------------------------------------------------------

 SCF Done:  E(RB3LYP) =  -839.999514706     A.U. after    1 cycles

 The electronic state is 1-A.
 Alpha  occ. eigenvalues --  -19.18020 -19.17075 -19.15916 -19.15539 -19.14959
 Alpha  occ. eigenvalues --  -19.14794 -19.13741 -19.13351 -10.29028 -10.25210
 Alpha  occ. eigenvalues --  -10.24993 -10.24108 -10.23165 -10.23085  -1.07440
 Alpha  occ. eigenvalues --   -1.04957  -1.02995  -1.02140  -1.01675  -1.00929
 Alpha  occ. eigenvalues --   -1.00231  -0.99744  -0.78131  -0.76637  -0.69383
 Alpha  occ. eigenvalues --   -0.64878  -0.63075  -0.56341  -0.55041  -0.54569
 Alpha  occ. eigenvalues --   -0.54078  -0.53068  -0.52676  -0.51231  -0.50265
 Alpha  occ. eigenvalues --   -0.49145  -0.45892  -0.44527  -0.43342  -0.42391
 Alpha  occ. eigenvalues --   -0.41224  -0.40337  -0.40296  -0.38856  -0.37736
 Alpha  occ. eigenvalues --   -0.36695  -0.35978  -0.35318  -0.33397  -0.33019
 Alpha  occ. eigenvalues --   -0.32006  -0.30820  -0.29911  -0.29835  -0.27472
 Alpha  occ. eigenvalues --   -0.27236  -0.26680  -0.24784
 Alpha virt. eigenvalues --    0.03941   0.04975   0.08061   0.08852   0.09272
 Alpha virt. eigenvalues --    0.10552   0.11317   0.13034   0.13908   0.14364
 Alpha virt. eigenvalues --    0.15470   0.15787   0.17157   0.17535   0.18421

 Mulliken charges:
               1
     1  O   -0.559820
     2  C    0.082509
     3  C    0.110241
     4  C    0.138888
     5  C    0.335852
     6  C    0.121918
     7  H    0.151971
     8  H    0.133554
     9  H    0.124011
    10  C   -0.076120
    11  H    0.165412
    12  H    0.157890
    13  H    0.150536
    14  O   -0.619407
    15  H    0.405030
    16  O   -0.649785
    17  H    0.411428
    18  O   -0.647194
    19  H    0.406187
    20  O   -0.673859
    21  H    0.415971
    22  H    0.129285
    23  O   -0.684275
    24  H    0.439733
    25  O   -0.814912
    26  H    0.429357
    27  H    0.397483
    28  O   -0.817979
    29  H    0.439693
    30  H    0.396404
 Sum of Mulliken charges =   0.00000

 Dipole moment (field-independent basis, Debye):
    X=             -2.8187    Y=              2.6675    Z=              1.4734  Tot=              4.1511
 Quadrupole moment (field-independent basis, Debye-Ang):
   XX=            -71.6944   YY=            -89.8635   ZZ=            -82.1963
   XY=              9.3009   XZ=             -3.5374   YZ=              7.0133

  Exact polarizability: 109.204   3.015  96.700  -0.198   3.054  79.992
 Approx polarizability: 138.917   6.021 124.069  -0.014   3.787 121.594

 ******    1 imaginary frequencies (negative Signs) ******

                      1                      2                      3
                      A                      A                      A
 Frequencies --    -26.5638                24.4132                44.2706
 Red. masses --      6.0401                 5.9257                 4.9613
 Frc consts  --      0.0025                 0.0021                 0.0057
 IR Inten    --      4.3955                 3.7679                 4.5120

                      4                      5                      6
                      A                      A                      A
 Frequencies --     57.1107                86.2987               125.8404
 Red. masses --      5.9828                 6.6996                 5.4457
 Frc consts  --      0.0115                 0.0294                 0.0508
 IR Inten    --      1.8097                 2.4355                 6.7497

                      7                      8                      9
                      A                      A                      A
 Frequencies --    157.5344               173.6208               202.6079
 Red. masses --      3.5941                 4.6066                 5.7352
 Frc consts  --      0.0526                 0.0818                 0.1387
 IR Inten    --      2.4742                 6.1398                16.7938

                     10                     11                     12
                      A                      A                      A
 Frequencies --    214.5146               252.7563               263.0379
 Red. masses --      3.9084                 5.4170                 3.0807
 Frc consts  --      0.1060                 0.2039                 0.1256
 IR Inten    --      2.2675                 7.7345                 8.0471

                     13                     14                     15
                      A                      A                      A
 Frequencies --    272.2622               295.1682               303.9334
 Red. masses --      3.8494                 1.4180                 3.7517
 Frc consts  --      0.1681                 0.0728                 0.2042
 IR Inten    --     22.6003                88.1385                12.5189

                     16                     17                     18
                      A                      A                      A
 Frequencies --    310.8862               325.5454               341.7628
 Red. masses --      1.0924                 1.2737                 1.8038
 Frc consts  --      0.0622                 0.0795                 0.1241
 IR Inten    --     25.3609               152.0983                23.4387

                     19                     20                     21
                      A                      A                      A
 Frequencies --    362.9957               374.1102               388.9789
 Red. masses --      4.0493                 3.3945                 2.1743
 Frc consts  --      0.3144                 0.2799                 0.1938
 IR Inten    --      7.7729                30.5286               138.3164

                     22                     23                     24
                      A                      A                      A
 Frequencies --    424.5010               446.3778               461.7734
 Red. masses --      5.3416                 1.2525                 2.7844
 Frc consts  --      0.5671                 0.1470                 0.3498
 IR Inten    --     28.2626                52.7559                63.8227

                     25                     26                     27
                      A                      A                      A
 Frequencies --    473.9879               490.4459               549.3721
 Red. masses --      1.6648                 3.1031                 1.8352
 Frc consts  --      0.2204                 0.4398                 0.3263
 IR Inten    --    146.8583                14.9779                80.7140

                     28                     29                     30
                      A                      A                      A
 Frequencies --    554.3891               599.0990               638.6486
 Red. masses --      1.4987                 3.1778                 1.1455
 Frc consts  --      0.2714                 0.6720                 0.2753
 IR Inten    --     97.1646                70.5658                59.6887

                     31                     32                     33
                      A                      A                      A
 Frequencies --    684.6014               706.7074               787.9753
 Red. masses --      1.8533                 1.7340                 2.1603
 Frc consts  --      0.5118                 0.5102                 0.7903
 IR Inten    --     37.7061                80.4845                10.4135

                     34                     35                     36
                      A                      A                      A
 Frequencies --    797.0338               852.5885               907.5002
 Red. masses --      1.7896                 2.7817                 1.7439
 Frc consts  --      0.6698                 1.1913                 0.8462
 IR Inten    --     92.5316               151.3829                 8.7909

                     37                     38                     39
                      A                      A                      A
 Frequencies --    983.3082              1013.3789              1020.6346
 Red. masses --      4.2823                 3.5332                 1.1226
 Frc consts  --      2.4396                 2.1378                 0.6890
 IR Inten    --     65.2057                50.0847                98.8950

                     40                     41                     42
                      A                      A                      A
 Frequencies --   1041.9108              1067.5391              1071.3285
 Red. masses --      3.1195                 3.3075                 3.3159
 Frc consts  --      1.9952                 2.2208                 2.2423
 IR Inten    --    103.1830                26.2165                35.3735

                     43                     44                     45
                      A                      A                      A
 Frequencies --   1082.6545              1107.7084              1119.4687
 Red. masses --      5.7124                 2.6001                 2.8211
 Frc consts  --      3.9450                 1.8797                 2.0830
 IR Inten    --    314.9561                38.1533                65.6825

                     46                     47                     48
                      A                      A                      A
 Frequencies --   1142.0072              1147.9162              1198.0100
 Red. masses --      3.8748                 2.6607                 1.7127
 Frc consts  --      2.9774                 2.0657                 1.4483
 IR Inten    --     15.7132                 0.3417                11.8163

                     49                     50                     51
                      A                      A                      A
 Frequencies --   1209.0750              1256.7739              1277.0749
 Red. masses --      2.2450                 1.1834                 1.2346
 Frc consts  --      1.9337                 1.1013                 1.1864
 IR Inten    --     44.5020                17.3877                49.5570

                     52                     53                     54
                      A                      A                      A
 Frequencies --   1289.4010              1328.9134              1342.8823
 Red. masses --      1.1563                 1.1869                 1.2451
 Frc consts  --      1.1327                 1.2350                 1.3229
 IR Inten    --     46.3424                 4.6563                53.6250

                     55                     56                     57
                      A                      A                      A
 Frequencies --   1362.5068              1371.8010              1383.6499
 Red. masses --      1.1855                 1.2747                 1.2207
 Frc consts  --      1.2967                 1.4134                 1.3769
 IR Inten    --      6.6346                60.8758                26.2193

                     58                     59                     60
                      A                      A                      A
 Frequencies --   1398.2133              1403.9337              1420.4245
 Red. masses --      1.2261                 1.2394                 1.3693
 Frc consts  --      1.4123                 1.4393                 1.6277
 IR Inten    --     67.2813                 8.5845                57.9614

                     61                     62                     63
                      A                      A                      A
 Frequencies --   1428.8630              1434.1639              1463.7742
 Red. masses --      1.3367                 1.3889                 1.6376
 Frc consts  --      1.6079                 1.6831                 2.0673
 IR Inten    --     11.4251                49.9024                 9.6280

                     64                     65                     66
                      A                      A                      A
 Frequencies --   1484.4760              1533.6665              1541.8706
 Red. masses --      1.5798                 1.0915                 1.3119
 Frc consts  --      2.0512                 1.5126                 1.8376
 IR Inten    --     26.5670                 2.2626                31.2459

                     67                     68                     69
                      A                      A                      A
 Frequencies --   1715.1531              1752.7734              2980.0448
 Red. masses --      1.0767                 1.0694                 1.0817
 Frc consts  --      1.8662                 1.9356                 5.6597
 IR Inten    --     50.4568                61.7220                 9.2235

                     70                     71                     72
                      A                      A                      A
 Frequencies --   3010.7306              3015.9972              3026.8254
 Red. masses --      1.0847                 1.0843                 1.0849
 Frc consts  --      5.7933                 5.8113                 5.8561
 IR Inten    --     30.6671                13.0614                14.7829

                     73                     74                     75
                      A                      A                      A
 Frequencies --   3033.7372              3049.2122              3119.7702
 Red. masses --      1.0858                 1.0651                 1.1026
 Frc consts  --      5.8880                 5.8346                 6.3227
 IR Inten    --    117.2204                30.1999                24.9467

                     76                     77                     78
                      A                      A                      A
 Frequencies --   3274.2711              3403.7856              3494.6480
 Red. masses --      1.0689                 1.0621                 1.0590
 Frc consts  --      6.7518                 7.2498                 7.6199
 IR Inten    --    589.4219               980.4007               735.4015

                     79                     80                     81
                      A                      A                      A
 Frequencies --   3641.2468              3701.9808              3720.9013
 Red. masses --      1.0658                 1.0647                 1.0654
 Frc consts  --      8.3257                 8.5967                 8.6907
 IR Inten    --    161.8582                41.8261                28.9092

                     82                     83                     84
                      A                      A                      A
 Frequencies --   3737.7479              3792.0982              3800.0576
 Red. masses --      1.0663                 1.0686                 1.0679
 Frc consts  --      8.7767                 9.0533                 9.0860
 IR Inten    --     26.2213                67.0970                49.3149

 - Thermochemistry -
 -------------------
 Temperature   298.150 Kelvin.  Pressure   1.00000 Atm.
 Atom     1 has atomic number  8 and mass  15.99491

 Molecular mass:   216.08452 amu.
 Principal axes and moments of inertia in atomic units:
                           1         2         3
     Eigenvalues --  2552.222433670.003445502.89663
           X            1.00000   0.00199   0.00062
           Y           -0.00199   0.99996   0.00860
           Z           -0.00060  -0.00860   0.99996
 This molecule is an asymmetric top.
 Rotational symmetry number  1.
 Warning -- assumption of classical behavior for rotation
           may cause significant error
 Rotational temperatures (Kelvin)      0.03394     0.02360     0.01574
 Rotational constants (GHZ):           0.70713     0.49175     0.32796
    1 imaginary frequencies ignored.
 Zero-point vibrational energy     652867.7 (Joules/Mol)
                                  156.03913 (Kcal/Mol)
 Warning -- explicit consideration of  28 degrees of freedom as
           vibrations may cause significant error
 Vibrational temperatures:     35.13    63.70    82.17   124.16   181.06
          (Kelvin)            226.66   249.80   291.51   308.64   363.66
                              378.45   391.72   424.68   437.29   447.30
                              468.39   491.72   522.27   538.26   559.65
                              610.76   642.24   664.39   681.96   705.64
                              790.42   797.64   861.97   918.87   984.99
                             1016.79  1133.72  1146.75  1226.68  1305.69
                             1414.76  1458.02  1468.46  1499.08  1535.95
                             1541.40  1557.70  1593.74  1610.66  1643.09
                             1651.59  1723.67  1739.59  1808.22  1837.42
                             1855.16  1912.01  1932.11  1960.34  1973.71
                             1990.76  2011.71  2019.94  2043.67  2055.81
                             2063.44  2106.04  2135.83  2206.60  2218.41
                             2467.72  2521.85  4287.61  4331.76  4339.34
                             4354.92  4364.87  4387.13  4488.65  4710.94
                             4897.28  5028.01  5238.94  5326.32  5353.54
                             5377.78  5455.98  5467.43

 Zero-point correction=                           0.248664 (Hartree/Particle)
 Thermal correction to Energy=                    0.265198
 Thermal correction to Enthalpy=                  0.266142
 Thermal correction to Gibbs Free Energy=         0.204783
 Sum of electronic and zero-point Energies=           -839.750851
 Sum of electronic and thermal Energies=              -839.734317
 Sum of electronic and thermal Enthalpies=            -839.733372
 Sum of electronic and thermal Free Energies=         -839.794731

                     E (Thermal)             CV                S
                      KCal/Mol        Cal/Mol-Kelvin    Cal/Mol-Kelvin
 Total                  166.414             61.978            129.141
 Electronic               0.000              0.000              0.000
 Translational            0.889              2.981             42.015
 Rotational               0.889              2.981             32.311
 Vibrational            164.637             56.016             54.815
 Vibration     1          0.593              1.985              6.238
 Vibration     2          0.595              1.980              5.058
 Vibration     3          0.596              1.975              4.555
 Vibration     4          0.601              1.959              3.742
 Vibration     5          0.611              1.927              3.009
 Vibration     6          0.621              1.894              2.579
 Vibration     7          0.627              1.875              2.396
 Vibration     8          0.639              1.836              2.109
 Vibration     9          0.644              1.819              2.005
 Vibration    10          0.664              1.758              1.711
 Vibration    11          0.670              1.741              1.642
 Vibration    12          0.675              1.724              1.582
 Vibration    13          0.689              1.683              1.444
 Vibration    14          0.695              1.666              1.395
 Vibration    15          0.700              1.653              1.358
 Vibration    16          0.710              1.624              1.282
 Vibration    17          0.721              1.592              1.204
 Vibration    18          0.737              1.548              1.109
 Vibration    19          0.745              1.525              1.063
 Vibration    20          0.757              1.494              1.004
 Vibration    21          0.786              1.417              0.877
 Vibration    22          0.806              1.369              0.807
 Vibration    23          0.820              1.335              0.761
 Vibration    24          0.831              1.308              0.726
 Vibration    25          0.846              1.271              0.682
 Vibration    26          0.905              1.141              0.545
 Vibration    27          0.910              1.130              0.535
 Vibration    28          0.957              1.034              0.451

 Normal termination of Gaussian 09 at Wed Jan 18 21:48:56 2017.
