 Gaussian 09, Revision E.01,
 Gaussian 09:  ES64L-G09RevE.01 30-Nov-2015

 ------------------------------------------------------
 # opt=(modredundant,MaxCycle=1000) freq B3LYP/6-31G(d)
 ------------------------------------------------------

 -------------------------
 boat2_Alpha_B3LYP_6-31G_d
 -------------------------
 Symbolic Z-matrix:
 Charge =  0 Multiplicity = 1

 SCF Done:  E(RB3LYP) =  -839.942604018     A.U. after   14 cycles
 SCF Done:  E(RB3LYP) =  -839.958624862     A.U. after   11 cycles
 SCF Done:  E(RB3LYP) =  -839.966650423     A.U. after   12 cycles
 SCF Done:  E(RB3LYP) =  -839.971752536     A.U. after   12 cycles
 SCF Done:  E(RB3LYP) =  -839.977852783     A.U. after   12 cycles
 SCF Done:  E(RB3LYP) =  -839.981471300     A.U. after   12 cycles
 SCF Done:  E(RB3LYP) =  -839.985177927     A.U. after   11 cycles
 SCF Done:  E(RB3LYP) =  -839.986773828     A.U. after   11 cycles
 SCF Done:  E(RB3LYP) =  -839.988494741     A.U. after   13 cycles
 SCF Done:  E(RB3LYP) =  -839.990035015     A.U. after   11 cycles
 SCF Done:  E(RB3LYP) =  -839.991687176     A.U. after    7 cycles
 SCF Done:  E(RB3LYP) =  -839.991687081     A.U. after    7 cycles
 SCF Done:  E(RB3LYP) =  -839.991686932     A.U. after    7 cycles
 SCF Done:  E(RB3LYP) =  -839.991686795     A.U. after    7 cycles
 SCF Done:  E(RB3LYP) =  -839.991686767     A.U. after    7 cycles
 SCF Done:  E(RB3LYP) =  -839.991686880     A.U. after    7 cycles
 SCF Done:  E(RB3LYP) =  -839.991687063     A.U. after    7 cycles
 SCF Done:  E(RB3LYP) =  -839.991687182     A.U. after    6 cycles
 SCF Done:  E(RB3LYP) =  -839.991687179     A.U. after    6 cycles
 Optimization completed.
    -- Stationary point found.

 1\1\GINC-TATANKA\FOpt\RB3LYP\6-31G(d)\C6H16O8\AALRAWAS\17-Jan-2017\0\\
 # opt=(modredundant,MaxCycle=1000) freq B3LYP/6-31G(d)\\boat2_Alpha_B3
 LYP_6-31G_d\\0,1\H,0.8381721045,1.2302156219,0.9103873708\C,0.90280726
 01,0.6047703966,0.0032332233\C,-0.6253238371,-1.4074260796,-0.32971179
 46\C,-1.4213204904,1.0172266826,-0.6097623895\C,-1.8289279452,-0.44056
 5762,-0.2027363212\O,-0.0226945753,1.0956981012,-0.9550421934\C,0.5822
 634511,-0.8559326554,0.4388919745\H,-0.9194663405,-2.3504584884,0.1515
 232705\H,-2.5949101936,-0.7773369158,-0.9140525654\H,1.4407345564,-1.5

 Normal termination of Gaussian 09 at Tue Jan 17 00:05:46 2017.

 --------------------------------------------------------------------
 #N Geom=AllCheck Guess=TCheck SCRF=Check GenChk RB3LYP/6-31G(d) Freq
 --------------------------------------------------------------------

 Structure from the checkpoint file:  "//home/aalrawas/scratch/Gau-16662.chk"
 -------------------------
 boat2_Alpha_B3LYP_6-31G_d
 -------------------------
 Charge =  0 Multiplicity = 1

                         Standard orientation:
 ---------------------------------------------------------------------
 Center     Atomic      Atomic             Coordinates (Angstroms)
 Number     Number       Type             X           Y           Z
 ---------------------------------------------------------------------
      1          1           0        0.291025    0.535857   -1.503928
      2          6           0        0.056087    0.939425   -0.503816
      3          6           0       -2.114207    0.339708    0.689973
      4          6           0       -0.129959   -1.277610    0.494981
      5          6           0       -1.688931   -1.146614    0.592031
      6          8           0        0.506885    0.016850    0.476741
      7          6           0       -1.486662    1.148047   -0.452803
      8          1           0       -3.204340    0.370791    0.555579
      9          1           0       -2.001724   -1.637910    1.523107
     10          1           0       -1.716962    2.209315   -0.275165
     11          6           0        0.828036    2.240870   -0.300026
     12          1           0        0.723529    2.567393    0.738173
     13          1           0        0.396700    3.019305   -0.948610
     14          8           0        2.231012    2.121528   -0.541184
     15          1           0        2.352378    1.799285   -1.449036
     16          8           0       -2.393103   -1.814533   -0.424461
     17          1           0       -2.092457   -1.444852   -1.271453
     18          8           0       -1.720413    0.975476    1.898413
     19          1           0       -2.167435    0.522211    2.629687
     20          8           0       -2.117699    0.707151   -1.658812
     21          1           0       -1.763784    1.228512   -2.395486
     22          1           0        0.284173   -1.719837    1.410617
     23          8           0        0.189396   -2.000694   -0.638543
     24          1           0        1.179936   -2.079308   -0.673329
     25          1           0        3.291639    0.861888    0.603118
     26          1           0        3.332831   -2.792017   -0.236556
     27          8           0        2.926669   -2.007359   -0.633270
     28          1           0        3.168136   -1.260594   -0.022360
     29          8           0        3.236233    0.045069    1.136466
     30          1           0        2.268350    0.009105    1.270810
 ---------------------------------------------------------------------

 SCF Done:  E(RB3LYP) =  -839.991687179     A.U. after    1 cycles

 The electronic state is 1-A.
 Alpha  occ. eigenvalues --  -19.17805 -19.17114 -19.16220 -19.15714 -19.13777
 Alpha  occ. eigenvalues --  -19.13557 -19.13025 -19.12856 -10.28139 -10.25397
 Alpha  occ. eigenvalues --  -10.25395 -10.25293 -10.24187 -10.23467  -1.07154
 Alpha  occ. eigenvalues --   -1.04599  -1.04271  -1.02879  -1.01058  -1.00220
 Alpha  occ. eigenvalues --   -0.99197  -0.98176  -0.78906  -0.76291  -0.69909
 Alpha  occ. eigenvalues --   -0.64194  -0.64112  -0.56940  -0.55586  -0.54782
 Alpha  occ. eigenvalues --   -0.52594  -0.51747  -0.51097  -0.50514  -0.50175
 Alpha  occ. eigenvalues --   -0.48787  -0.45978  -0.44588  -0.43988  -0.42280
 Alpha  occ. eigenvalues --   -0.40900  -0.40671  -0.39599  -0.39191  -0.37752
 Alpha  occ. eigenvalues --   -0.36625  -0.35967  -0.35611  -0.34425  -0.31209
 Alpha  occ. eigenvalues --   -0.30387  -0.29652  -0.29360  -0.28782  -0.28664
 Alpha  occ. eigenvalues --   -0.27474  -0.27315  -0.24085
 Alpha virt. eigenvalues --    0.03997   0.04566   0.06345   0.07620   0.09484
 Alpha virt. eigenvalues --    0.10416   0.11095   0.12578   0.13386   0.13884
 Alpha virt. eigenvalues --    0.14870   0.16140   0.17231   0.17966   0.18753

 Mulliken charges:
               1
     1  H    0.122350
     2  C    0.132160
     3  C    0.114987
     4  C    0.333219
     5  C    0.072320
     6  O   -0.527670
     7  C    0.062762
     8  H    0.148908
     9  H    0.125366
    10  H    0.141129
    11  C   -0.066952
    12  H    0.187557
    13  H    0.130322
    14  O   -0.621131
    15  H    0.402039
    16  O   -0.616785
    17  H    0.414144
    18  O   -0.631733
    19  H    0.398663
    20  O   -0.632232
    21  H    0.398182
    22  H    0.120801
    23  O   -0.652133
    24  H    0.441210
    25  H    0.418838
    26  H    0.394235
    27  O   -0.829244
    28  H    0.421199
    29  O   -0.827778
    30  H    0.425267
 Sum of Mulliken charges =  -0.00000

 Dipole moment (field-independent basis, Debye):
    X=             -0.1820    Y=              2.6760    Z=             -0.6185  Tot=              2.7526
 Quadrupole moment (field-independent basis, Debye-Ang):
   XX=            -90.6937   YY=            -83.2132   ZZ=            -74.5847
   XY=             -8.1909   XZ=             -7.5498   YZ=            -11.9398

  Exact polarizability:  98.455  -0.093  94.434  -1.007  -2.827  88.873
 Approx polarizability: 125.157   2.635 126.013   2.398   0.460 132.147

 ******    1 imaginary frequencies (negative Signs) ******

                      1                      2                      3
                      A                      A                      A
 Frequencies --    -23.0070                33.4560                61.2298
 Red. masses --      5.4313                 4.8074                 5.7203
 Frc consts  --      0.0017                 0.0032                 0.0126
 IR Inten    --      1.9780                 3.4232                 1.0620

                      4                      5                      6
                      A                      A                      A
 Frequencies --     90.0147               103.4545               137.9979
 Red. masses --      4.9736                 5.1170                 2.2429
 Frc consts  --      0.0237                 0.0323                 0.0252
 IR Inten    --     10.9986                 1.1310                 7.8305

                      7                      8                      9
                      A                      A                      A
 Frequencies --    154.7619               189.4251               200.9096
 Red. masses --      5.4070                 3.7965                 3.2269
 Frc consts  --      0.0763                 0.0803                 0.0767
 IR Inten    --      2.5760                 2.6925                 3.6154

                     10                     11                     12
                      A                      A                      A
 Frequencies --    205.3073               221.9790               223.0520
 Red. masses --      3.4260                 1.4992                 4.8462
 Frc consts  --      0.0851                 0.0435                 0.1421
 IR Inten    --      6.2159               105.7107                 6.8343

                     13                     14                     15
                      A                      A                      A
 Frequencies --    252.7067               261.5104               273.3324
 Red. masses --      2.4964                 2.4198                 1.9439
 Frc consts  --      0.0939                 0.0975                 0.0856
 IR Inten    --     17.8219                 9.1040                21.5560

                     16                     17                     18
                      A                      A                      A
 Frequencies --    282.4160               295.3476               321.0627
 Red. masses --      1.4624                 1.6326                 1.4689
 Frc consts  --      0.0687                 0.0839                 0.0892
 IR Inten    --     37.9509                24.2803                27.8840

                     19                     20                     21
                      A                      A                      A
 Frequencies --    326.1848               346.5319               386.1230
 Red. masses --      1.3282                 2.7132                 3.1438
 Frc consts  --      0.0833                 0.1920                 0.2762
 IR Inten    --    178.4237                59.5527                13.6395

                     22                     23                     24
                      A                      A                      A
 Frequencies --    394.1960               424.6318               432.0193
 Red. masses --      2.6759                 4.0458                 1.1084
 Frc consts  --      0.2450                 0.4298                 0.1219
 IR Inten    --    158.9725                92.3874                77.4602

                     25                     26                     27
                      A                      A                      A
 Frequencies --    468.9184               483.0842               530.2621
 Red. masses --      6.5782                 3.8226                 5.7446
 Frc consts  --      0.8522                 0.5256                 0.9517
 IR Inten    --      4.4135                 7.2849                35.9539

                     28                     29                     30
                      A                      A                      A
 Frequencies --    541.2283               575.9387               626.9644
 Red. masses --      1.1020                 5.3900                 3.9729
 Frc consts  --      0.1902                 1.0534                 0.9201
 IR Inten    --     50.7683                 1.4387                18.3570

                     31                     32                     33
                      A                      A                      A
 Frequencies --    699.0338               775.6104               778.6289
 Red. masses --      5.4736                 1.2898                 2.3834
 Frc consts  --      1.5759                 0.4571                 0.8514
 IR Inten    --     11.1707               168.6397                71.5366

                     34                     35                     36
                      A                      A                      A
 Frequencies --    859.4582               895.8715               906.7686
 Red. masses --      2.2836                 3.6678                 1.5656
 Frc consts  --      0.9939                 1.7344                 0.7585
 IR Inten    --     15.3982                25.5121                60.7805

                     37                     38                     39
                      A                      A                      A
 Frequencies --    917.1635               991.0031               998.0053
 Red. masses --      1.8061                 1.0756                 2.5532
 Frc consts  --      0.8951                 0.6224                 1.4983
 IR Inten    --     79.2946                93.3325                92.6030

                     40                     41                     42
                      A                      A                      A
 Frequencies --   1038.0848              1041.8491              1077.6926
 Red. masses --      4.4089                 4.1905                 3.2971
 Frc consts  --      2.7992                 2.6799                 2.2562
 IR Inten    --    183.0613               122.4092                86.3706

                     43                     44                     45
                      A                      A                      A
 Frequencies --   1084.3969              1107.2839              1110.4021
 Red. masses --      2.5342                 2.7881                 3.0080
 Frc consts  --      1.7558                 2.0141                 2.1852
 IR Inten    --     23.4836                27.3668                74.6952

                     46                     47                     48
                      A                      A                      A
 Frequencies --   1114.3145              1144.5279              1177.2857
 Red. masses --      3.2950                 3.0755                 4.5846
 Frc consts  --      2.4106                 2.3737                 3.7438
 IR Inten    --     43.9545                32.1126               119.4314

                     49                     50                     51
                      A                      A                      A
 Frequencies --   1221.2823              1229.5174              1248.9016
 Red. masses --      1.1469                 1.4322                 1.1938
 Frc consts  --      1.0079                 1.2756                 1.0971
 IR Inten    --     47.1373                26.2489                36.9707

                     52                     53                     54
                      A                      A                      A
 Frequencies --   1300.9886              1318.3119              1329.3837
 Red. masses --      1.1285                 1.3609                 1.2983
 Frc consts  --      1.1253                 1.3935                 1.3518
 IR Inten    --     19.7808                22.6828                10.8503

                     55                     56                     57
                      A                      A                      A
 Frequencies --   1350.1953              1374.2282              1387.8062
 Red. masses --      1.2673                 1.2927                 1.2995
 Frc consts  --      1.3612                 1.4383                 1.4747
 IR Inten    --     31.4532                18.8135                 4.2118

                     58                     59                     60
                      A                      A                      A
 Frequencies --   1392.5392              1405.4690              1414.6486
 Red. masses --      1.2034                 1.2543                 1.2822
 Frc consts  --      1.3749                 1.4598                 1.5118
 IR Inten    --     10.8134                 2.0522                21.9153

                     61                     62                     63
                      A                      A                      A
 Frequencies --   1424.2549              1438.2600              1475.8264
 Red. masses --      1.4064                 1.3583                 1.6582
 Frc consts  --      1.6808                 1.6555                 2.1279
 IR Inten    --     26.5496                29.9795                 2.1436

                     64                     65                     66
                      A                      A                      A
 Frequencies --   1477.8715              1522.0190              1526.3738
 Red. masses --      1.1818                 1.0866                 1.3203
 Frc consts  --      1.5208                 1.4830                 1.8123
 IR Inten    --     84.8054                 1.7771                33.6472

                     67                     68                     69
                      A                      A                      A
 Frequencies --   1742.6488              1775.6772              2974.3640
 Red. masses --      1.0742                 1.0789                 1.0828
 Frc consts  --      1.9220                 2.0043                 5.6438
 IR Inten    --     72.1383               230.3749                34.1798

                     70                     71                     72
                      A                      A                      A
 Frequencies --   3008.7615              3020.2083              3028.9303
 Red. masses --      1.0774                 1.0782                 1.0860
 Frc consts  --      5.7465                 5.7945                 5.8704
 IR Inten    --     16.0785                83.5549                 0.7979

                     73                     74                     75
                      A                      A                      A
 Frequencies --   3040.2672              3051.1143              3132.7583
 Red. masses --      1.0857                 1.0871                 1.0945
 Frc consts  --      5.9124                 5.9628                 6.3286
 IR Inten    --     63.5397                92.7729                10.2891

                     76                     77                     78
                      A                      A                      A
 Frequencies --   3278.9125              3374.3584              3645.6393
 Red. masses --      1.0662                 1.0640                 1.0482
 Frc consts  --      6.7537                 7.1381                 8.2079
 IR Inten    --    555.7599               891.4939               262.0836

                     79                     80                     81
                      A                      A                      A
 Frequencies --   3686.2403              3731.4560              3733.8881
 Red. masses --      1.0761                 1.0660                 1.0653
 Frc consts  --      8.6154                 8.7455                 8.7506
 IR Inten    --    139.6949                16.4283                63.3523

                     82                     83                     84
                      A                      A                      A
 Frequencies --   3749.6179              3751.3340              3801.2852
 Red. masses --      1.0663                 1.0664                 1.0669
 Frc consts  --      8.8333                 8.8421                 9.0833
 IR Inten    --     10.4950                15.5331                38.8296

 - Thermochemistry -
 -------------------
 Temperature   298.150 Kelvin.  Pressure   1.00000 Atm.
 Atom     1 has atomic number  1 and mass   1.00783

 Molecular mass:   216.08452 amu.
 Principal axes and moments of inertia in atomic units:
                           1         2         3
     Eigenvalues --  2290.997763537.230664448.52442
           X            0.99973  -0.02263  -0.00497
           Y            0.02249   0.99940  -0.02629
           Z            0.00556   0.02617   0.99964
 This molecule is an asymmetric top.
 Rotational symmetry number  1.
 Warning -- assumption of classical behavior for rotation
           may cause significant error
 Rotational temperatures (Kelvin)      0.03781     0.02449     0.01947
 Rotational constants (GHZ):           0.78775     0.51021     0.40569
    1 imaginary frequencies ignored.
 Zero-point vibrational energy     651526.7 (Joules/Mol)
                                  155.71863 (Kcal/Mol)
 Warning -- explicit consideration of  28 degrees of freedom as
           vibrations may cause significant error
 Vibrational temperatures:     48.14    88.10   129.51   148.85   198.55
          (Kelvin)            222.67   272.54   289.06   295.39   319.38
                              320.92   363.59   376.25   393.26   406.33
                              424.94   461.94   469.31   498.58   555.54
                              567.16   610.95   621.58   674.67   695.05
                              762.93   778.71   828.65   902.06  1005.75
                             1115.93  1120.27  1236.57  1288.96  1304.64
                             1319.59  1425.83  1435.91  1493.57  1498.99
                             1550.56  1560.20  1593.13  1597.62  1603.25
                             1646.72  1693.85  1757.15  1769.00  1796.89
                             1871.83  1896.75  1912.68  1942.63  1977.21
                             1996.74  2003.55  2022.15  2035.36  2049.18
                             2069.33  2123.38  2126.32  2189.84  2196.11
                             2507.28  2554.80  4279.44  4328.93  4345.40
                             4357.95  4374.26  4389.87  4507.33  4717.62
                             4854.94  5245.26  5303.67  5368.73  5372.23
                             5394.86  5397.33  5469.19

 Zero-point correction=                           0.248153 (Hartree/Particle)
 Thermal correction to Energy=                    0.264988
 Thermal correction to Enthalpy=                  0.265932
 Thermal correction to Gibbs Free Energy=         0.205031
 Sum of electronic and zero-point Energies=           -839.743534
 Sum of electronic and thermal Energies=              -839.726699
 Sum of electronic and thermal Enthalpies=            -839.725755
 Sum of electronic and thermal Free Energies=         -839.786656

                     E (Thermal)             CV                S
                      KCal/Mol        Cal/Mol-Kelvin    Cal/Mol-Kelvin
 Total                  166.282             62.767            128.177
 Electronic               0.000              0.000              0.000
 Translational            0.889              2.981             42.015
 Rotational               0.889              2.981             31.956
 Vibrational            164.505             56.805             54.207
 Vibration     1          0.594              1.983              5.613
 Vibration     2          0.597              1.973              4.417
 Vibration     3          0.602              1.956              3.660
 Vibration     4          0.605              1.946              3.388
 Vibration     5          0.614              1.915              2.831
 Vibration     6          0.620              1.897              2.613
 Vibration     7          0.633              1.854              2.233
 Vibration     8          0.638              1.839              2.125
 Vibration     9          0.640              1.832              2.085
 Vibration    10          0.648              1.808              1.943
 Vibration    11          0.649              1.806              1.934
 Vibration    12          0.664              1.758              1.712
 Vibration    13          0.669              1.743              1.652
 Vibration    14          0.676              1.723              1.575
 Vibration    15          0.681              1.706              1.519
 Vibration    16          0.690              1.682              1.443
 Vibration    17          0.707              1.633              1.305
 Vibration    18          0.710              1.623              1.279
 Vibration    19          0.725              1.582              1.182
 Vibration    20          0.755              1.500              1.015
 Vibration    21          0.761              1.483              0.984
 Vibration    22          0.787              1.417              0.876
 Vibration    23          0.793              1.400              0.852
 Vibration    24          0.826              1.319              0.741
 Vibration    25          0.839              1.288              0.702
 Vibration    26          0.885              1.183              0.587
 Vibration    27          0.896              1.159              0.563
 Vibration    28          0.932              1.083              0.493

 1\1\GINC-TATANKA\Freq\RB3LYP\6-31G(d)\C6H16O8\AALRAWAS\17-Jan-2017\0\\
 #N Geom=AllCheck Guess=TCheck SCRF=Check GenChk RB3LYP/6-31G(d) Freq\\
 boat2_Alpha_B3LYP_6-31G_d\\0,1\H,0.8381721045,1.2302156219,0.910387370
 8\C,0.9028072601,0.6047703966,0.0032332233\C,-0.6253238371,-1.40742607
 96,-0.3297117946\C,-1.4213204904,1.0172266826,-0.6097623895\C,-1.82892
 79452,-0.440565762,-0.2027363212\O,-0.0226945753,1.0956981012,-0.95504
 21934\C,0.5822634511,-0.8559326554,0.4388919745\H,-0.9194663405,-2.350
 4584884,0.1515232705\H,-2.5949101936,-0.7773369158,-0.9140525654\H,1.4

 Normal termination of Gaussian 09 at Tue Jan 17 00:13:22 2017.
