 Gaussian 09, Revision D.01,
 Gaussian 09:  ES64L-G09RevD.01 24-Apr-2013

 ------------------------------------------------------
 # opt=(modredundant,MaxCycle=1000) freq B3LYP/6-31G(d)
 ------------------------------------------------------

 -------------------------
 boat4_Alpha_B3LYP_6-31G_d
 -------------------------
 Symbolic Z-matrix:
 Charge =  0 Multiplicity = 1

 SCF Done:  E(RB3LYP) =  -839.931722679     A.U. after   14 cycles
 SCF Done:  E(RB3LYP) =  -839.957811516     A.U. after   11 cycles
 SCF Done:  E(RB3LYP) =  -839.975447154     A.U. after   11 cycles
 SCF Done:  E(RB3LYP) =  -839.983747121     A.U. after   11 cycles
 SCF Done:  E(RB3LYP) =  -839.986873411     A.U. after   11 cycles
 SCF Done:  E(RB3LYP) =  -839.988804044     A.U. after   11 cycles
 SCF Done:  E(RB3LYP) =  -839.990262861     A.U. after   11 cycles
 SCF Done:  E(RB3LYP) =  -839.990760504     A.U. after   11 cycles
 SCF Done:  E(RB3LYP) =  -839.991096282     A.U. after   10 cycles
 SCF Done:  E(RB3LYP) =  -839.991412019     A.U. after   10 cycles
 SCF Done:  E(RB3LYP) =  -839.995451506     A.U. after   10 cycles
 SCF Done:  E(RB3LYP) =  -839.995498904     A.U. after   11 cycles
 SCF Done:  E(RB3LYP) =  -839.995513838     A.U. after    9 cycles
 SCF Done:  E(RB3LYP) =  -839.995518437     A.U. after    8 cycles
 SCF Done:  E(RB3LYP) =  -839.995521693     A.U. after    8 cycles
 SCF Done:  E(RB3LYP) =  -839.995523196     A.U. after    7 cycles
 SCF Done:  E(RB3LYP) =  -839.995524191     A.U. after    7 cycles
 SCF Done:  E(RB3LYP) =  -839.995524507     A.U. after    7 cycles
 SCF Done:  E(RB3LYP) =  -839.995524632     A.U. after    6 cycles
 Optimization completed.
    -- Stationary point found.
 Normal termination of Gaussian 09 at Wed Jan 18 21:05:35 2017.

 --------------------------------------------------------------------
 #N Geom=AllCheck Guess=TCheck SCRF=Check GenChk RB3LYP/6-31G(d) Freq
 --------------------------------------------------------------------

 Structure from the checkpoint file:  "/home/iawad/Gau-31417.chk"
 -------------------------
 boat4_Alpha_B3LYP_6-31G_d
 -------------------------
 Charge =  0 Multiplicity = 1

                         Standard orientation:
 ---------------------------------------------------------------------
 Center     Atomic      Atomic             Coordinates (Angstroms)
 Number     Number       Type             X           Y           Z
 ---------------------------------------------------------------------
      1          8           0       -1.465907    0.335531    0.273044
      2          6           0        0.946682    0.414813   -0.319685
      3          6           0       -0.259403   -1.806791   -0.061906
      4          6           0        1.090637   -1.066755    0.057619
      5          6           0       -1.415216   -0.894310   -0.493870
      6          6           0       -0.241394    1.064627    0.417276
      7          1           0        1.388997   -1.114605    1.115712
      8          1           0        0.015384    1.084556    1.487730
      9          1           0        0.807288    0.485052   -1.408924
     10          6           0       -0.520867    2.495991   -0.070296
     11          1           0       -0.733543    2.481241   -1.143604
     12          1           0       -1.405568    2.896891    0.442637
     13          1           0       -0.144014   -2.582273   -0.832477
     14          8           0        0.603973    3.371276    0.093472
     15          1           0        0.683954    3.583072    1.037502
     16          8           0       -0.556498   -2.372353    1.205141
     17          1           0       -1.504115   -2.594143    1.174430
     18          8           0        2.014001   -1.726861   -0.781503
     19          1           0        2.923492   -1.426385   -0.554400
     20          8           0        2.142403    1.105645    0.061046
     21          1           0        1.979444    2.055924   -0.105520
     22          1           0       -1.312695   -0.622333   -1.556908
     23          8           0       -2.596016   -1.581615   -0.260809
     24          1           0       -3.348393   -0.972003   -0.447706
     25          8           0       -4.192637    0.655136   -0.291189
     26          1           0       -3.312489    0.927189    0.039472
     27          1           0       -4.735371    0.571868    0.508356
     28          8           0        4.395357   -0.488225   -0.027499
     29          1           0        3.782223    0.277525   -0.012667
     30          1           0        4.555372   -0.685306    0.907925
 ---------------------------------------------------------------------

 SCF Done:  E(RB3LYP) =  -839.995524632     A.U. after    1 cycles

 The electronic state is 1-A.
 Alpha  occ. eigenvalues --  -19.19268 -19.17620 -19.16698 -19.16615 -19.15612
 Alpha  occ. eigenvalues --  -19.14326 -19.13258 -19.11750 -10.29335 -10.26160
 Alpha  occ. eigenvalues --  -10.26003 -10.24940 -10.23268 -10.23095  -1.08182
 Alpha  occ. eigenvalues --   -1.06212  -1.03845  -1.02381  -1.01775  -1.00609
 Alpha  occ. eigenvalues --   -1.00199  -0.98926  -0.78737  -0.76827  -0.70109
 Alpha  occ. eigenvalues --   -0.65047  -0.63867  -0.56768  -0.55490  -0.54962
 Alpha  occ. eigenvalues --   -0.54319  -0.53250  -0.52667  -0.51003  -0.50566
 Alpha  occ. eigenvalues --   -0.49977  -0.46607  -0.44984  -0.43927  -0.42857
 Alpha  occ. eigenvalues --   -0.41766  -0.40607  -0.39746  -0.39262  -0.37621
 Alpha  occ. eigenvalues --   -0.37486  -0.37154  -0.35478  -0.33822  -0.32925
 Alpha  occ. eigenvalues --   -0.32108  -0.31352  -0.30144  -0.28865  -0.28580
 Alpha  occ. eigenvalues --   -0.27739  -0.26029  -0.24595
 Alpha virt. eigenvalues --    0.02976   0.05180   0.07203   0.08272   0.08768
 Alpha virt. eigenvalues --    0.10364   0.11361   0.12821   0.13122   0.14612
 Alpha virt. eigenvalues --    0.15017   0.15609   0.16492   0.17912   0.19055

 Mulliken charges:
               1
     1  O   -0.555222
     2  C    0.092863
     3  C    0.114196
     4  C    0.123328
     5  C    0.338090
     6  C    0.121153
     7  H    0.138162
     8  H    0.134969
     9  H    0.136345
    10  C   -0.074127
    11  H    0.169628
    12  H    0.147360
    13  H    0.157930
    14  O   -0.618814
    15  H    0.407653
    16  O   -0.652580
    17  H    0.410724
    18  O   -0.676757
    19  H    0.425245
    20  O   -0.690067
    21  H    0.425090
    22  H    0.122713
    23  O   -0.671474
    24  H    0.426859
    25  O   -0.794954
    26  H    0.419074
    27  H    0.400575
    28  O   -0.800465
    29  H    0.429381
    30  H    0.393122
 Sum of Mulliken charges =   0.00000

 Dipole moment (field-independent basis, Debye):
    X=             -2.2334    Y=              4.7019    Z=              3.2808  Tot=              6.1530
 Quadrupole moment (field-independent basis, Debye-Ang):
   XX=            -85.3674   YY=            -85.8041   ZZ=            -81.5625
   XY=              3.4524   XZ=              2.3710   YZ=              5.3422

  Exact polarizability: 111.646   0.605  97.084   1.067   2.473  78.054
 Approx polarizability: 139.751   2.991 125.194   1.231   3.376 121.158

 ******    1 imaginary frequencies (negative Signs) ******

                      1                      2                      3
                      A                      A                      A
 Frequencies --    -26.9833                40.6495                47.6133
 Red. masses --      6.0661                 6.1023                 5.9265
 Frc consts  --      0.0026                 0.0059                 0.0079
 IR Inten    --      1.7058                 2.0696                 3.0390

                      4                      5                      6
                      A                      A                      A
 Frequencies --     77.6440               103.6420               126.8516
 Red. masses --      5.7465                 6.4780                 3.9386
 Frc consts  --      0.0204                 0.0410                 0.0373
 IR Inten    --      2.0012                 4.0760                 1.2835

                      7                      8                      9
                      A                      A                      A
 Frequencies --    150.4115               175.7674               181.5411
 Red. masses --      4.8307                 5.2568                 3.5839
 Frc consts  --      0.0644                 0.0957                 0.0696
 IR Inten    --      3.8146                 5.2554                28.6779

                     10                     11                     12
                      A                      A                      A
 Frequencies --    197.0295               236.7163               261.3342
 Red. masses --      6.6002                 5.0333                 2.0109
 Frc consts  --      0.1510                 0.1662                 0.0809
 IR Inten    --     11.9606                20.6051                27.4163

                     13                     14                     15
                      A                      A                      A
 Frequencies --    275.0924               279.9241               293.3872
 Red. masses --      1.1672                 1.7024                 2.6282
 Frc consts  --      0.0520                 0.0786                 0.1333
 IR Inten    --     50.9845                84.7780                17.3802

                     16                     17                     18
                      A                      A                      A
 Frequencies --    318.8336               337.1798               343.9096
 Red. masses --      1.1347                 1.6228                 1.4636
 Frc consts  --      0.0680                 0.1087                 0.1020
 IR Inten    --    139.5193                23.6132               114.4835

                     19                     20                     21
                      A                      A                      A
 Frequencies --    354.1909               371.2985               387.7289
 Red. masses --      4.2078                 2.8647                 3.1209
 Frc consts  --      0.3110                 0.2327                 0.2764
 IR Inten    --      9.4179                13.7109               170.3747

                     22                     23                     24
                      A                      A                      A
 Frequencies --    396.4591               413.9198               462.5118
 Red. masses --      4.2397                 4.7402                 2.7672
 Frc consts  --      0.3926                 0.4785                 0.3488
 IR Inten    --     37.0047                38.5608                38.4074

                     25                     26                     27
                      A                      A                      A
 Frequencies --    476.4888               492.8022               551.9997
 Red. masses --      2.1672                 2.8704                 2.8576
 Frc consts  --      0.2899                 0.4107                 0.5130
 IR Inten    --     60.5220                 1.9386                 6.7019

                     28                     29                     30
                      A                      A                      A
 Frequencies --    600.4436               636.8850               666.0306
 Red. masses --      2.6649                 1.1500                 1.1797
 Frc consts  --      0.5661                 0.2748                 0.3083
 IR Inten    --     15.9887               150.7764                70.4721

                     31                     32                     33
                      A                      A                      A
 Frequencies --    689.8269               715.7658               793.8152
 Red. masses --      2.6873                 1.3260                 5.0843
 Frc consts  --      0.7534                 0.4003                 1.8876
 IR Inten    --     52.5115               291.8335                48.6389

                     34                     35                     36
                      A                      A                      A
 Frequencies --    835.0360               856.3611               884.6032
 Red. masses --      1.6817                 1.4842                 1.1844
 Frc consts  --      0.6909                 0.6413                 0.5461
 IR Inten    --     46.8280               193.9137                86.9061

                     37                     38                     39
                      A                      A                      A
 Frequencies --    901.1364               993.7424              1015.0067
 Red. masses --      1.7171                 3.9476                 3.8284
 Frc consts  --      0.8215                 2.2968                 2.3238
 IR Inten    --      5.9760                39.1121                37.0408

                     40                     41                     42
                      A                      A                      A
 Frequencies --   1042.6966              1059.8714              1073.2721
 Red. masses --      3.1930                 4.2795                 3.6547
 Frc consts  --      2.0453                 2.8324                 2.4804
 IR Inten    --     79.8004                35.5578                25.7783

                     43                     44                     45
                      A                      A                      A
 Frequencies --   1082.6606              1107.1600              1121.4384
 Red. masses --      6.3479                 2.2339                 4.2049
 Frc consts  --      4.3839                 1.6134                 3.1157
 IR Inten    --    303.2016                 9.8782               110.0426

                     46                     47                     48
                      A                      A                      A
 Frequencies --   1134.2337              1138.4108              1195.6425
 Red. masses --      3.0983                 2.9336                 2.5753
 Frc consts  --      2.3484                 2.2400                 2.1691
 IR Inten    --     15.4937                 5.5134                27.8833

                     49                     50                     51
                      A                      A                      A
 Frequencies --   1201.5865              1264.7757              1278.0589
 Red. masses --      1.7284                 1.1635                 1.2306
 Frc consts  --      1.4703                 1.0966                 1.1843
 IR Inten    --     29.6591                16.5752                39.0913

                     52                     53                     54
                      A                      A                      A
 Frequencies --   1302.2114              1332.2705              1335.5237
 Red. masses --      1.2094                 1.2007                 1.1623
 Frc consts  --      1.2083                 1.2557                 1.2214
 IR Inten    --     20.1127                35.9697                40.2369

                     55                     56                     57
                      A                      A                      A
 Frequencies --   1354.7573              1380.7730              1387.3638
 Red. masses --      1.1866                 1.2598                 1.2504
 Frc consts  --      1.2832                 1.4151                 1.4180
 IR Inten    --      1.2010                61.3644                29.2028

                     58                     59                     60
                      A                      A                      A
 Frequencies --   1397.8134              1410.7061              1424.3784
 Red. masses --      1.2595                 1.2154                 1.2940
 Frc consts  --      1.4499                 1.4251                 1.5468
 IR Inten    --     40.2834                13.3327                22.9178

                     61                     62                     63
                      A                      A                      A
 Frequencies --   1427.3059              1445.7450              1473.5610
 Red. masses --      1.3228                 1.3964                 1.3942
 Frc consts  --      1.5877                 1.7196                 1.7837
 IR Inten    --     22.8201                81.4723                28.9777

                     64                     65                     66
                      A                      A                      A
 Frequencies --   1504.4968              1529.9464              1534.1025
 Red. masses --      1.3954                 1.1016                 1.3653
 Frc consts  --      1.8610                 1.5192                 1.8931
 IR Inten    --     32.1051                 2.3576                56.7131

                     67                     68                     69
                      A                      A                      A
 Frequencies --   1717.8520              1719.0981              2989.1577
 Red. masses --      1.0774                 1.0770                 1.0837
 Frc consts  --      1.8732                 1.8752                 5.7052
 IR Inten    --     47.0960                68.7768                36.0445

                     70                     71                     72
                      A                      A                      A
 Frequencies --   3009.8103              3014.4810              3029.9846
 Red. masses --      1.0833                 1.0832                 1.0862
 Frc consts  --      5.7821                 5.7993                 5.8755
 IR Inten    --      8.6164                 1.2426                63.9224

                     73                     74                     75
                      A                      A                      A
 Frequencies --   3040.2662              3043.2016              3120.2134
 Red. masses --      1.0851                 1.0663                 1.1013
 Frc consts  --      5.9096                 5.8185                 6.3171
 IR Inten    --     71.1799                46.7236                25.5981

                     76                     77                     78
                      A                      A                      A
 Frequencies --   3456.0978              3477.7125              3578.0849
 Red. masses --      1.0667                 1.0669                 1.0593
 Frc consts  --      7.5068                 7.6022                 7.9904
 IR Inten    --    423.0277               298.9805               735.1578

                     79                     80                     81
                      A                      A                      A
 Frequencies --   3603.7675              3614.5762              3696.7835
 Red. masses --      1.0633                 1.0544                 1.0646
 Frc consts  --      8.1362                 8.1162                 8.5718
 IR Inten    --    154.6442               299.4722                44.9820

                     82                     83                     84
                      A                      A                      A
 Frequencies --   3738.3487              3797.1118              3798.4380
 Red. masses --      1.0663                 1.0731                 1.0713
 Frc consts  --      8.7799                 9.1162                 9.1069
 IR Inten    --     29.1562               111.1285                53.6743

 - Thermochemistry -
 -------------------
 Temperature   298.150 Kelvin.  Pressure   1.00000 Atm.
 Atom     1 has atomic number  8 and mass  15.99491

 Molecular mass:   216.08452 amu.
 Principal axes and moments of inertia in atomic units:
                           1         2         3
     Eigenvalues --  2338.739553911.137095839.59392
           X            0.99995  -0.00947   0.00299
           Y            0.00946   0.99994   0.00483
           Z           -0.00303  -0.00480   0.99998
 This molecule is an asymmetric top.
 Rotational symmetry number  1.
 Warning -- assumption of classical behavior for rotation
           may cause significant error
 Rotational temperatures (Kelvin)      0.03703     0.02215     0.01483
 Rotational constants (GHZ):           0.77167     0.46144     0.30905
    1 imaginary frequencies ignored.
 Zero-point vibrational energy     653934.6 (Joules/Mol)
                                  156.29412 (Kcal/Mol)
 Warning -- explicit consideration of  27 degrees of freedom as
           vibrations may cause significant error
 Vibrational temperatures:     58.49    68.50   111.71   149.12   182.51
          (Kelvin)            216.41   252.89   261.20   283.48   340.58
                              376.00   395.80   402.75   422.12   458.73
                              485.13   494.81   509.60   534.22   557.85
                              570.42   595.54   665.45   685.56   709.03
                              794.20   863.90   916.33   958.27   992.51
                             1029.83  1142.12  1201.43  1232.11  1272.75
                             1296.53  1429.77  1460.37  1500.21  1524.92
                             1544.20  1557.71  1592.95  1613.50  1631.91
                             1637.92  1720.26  1728.81  1819.73  1838.84
                             1873.59  1916.84  1921.52  1949.19  1986.62
                             1996.10  2011.14  2029.69  2049.36  2053.57
                             2080.10  2120.12  2164.63  2201.25  2207.23
                             2471.60  2473.40  4300.73  4330.44  4337.16
                             4359.47  4374.26  4378.48  4489.29  4972.55
                             5003.65  5148.06  5185.01  5200.56  5318.84
                             5378.64  5463.19  5465.10

 Zero-point correction=                           0.249071 (Hartree/Particle)
 Thermal correction to Energy=                    0.265592
 Thermal correction to Enthalpy=                  0.266536
 Thermal correction to Gibbs Free Energy=         0.205871
 Sum of electronic and zero-point Energies=           -839.746454
 Sum of electronic and thermal Energies=              -839.729933
 Sum of electronic and thermal Enthalpies=            -839.728989
 Sum of electronic and thermal Free Energies=         -839.789654

                     E (Thermal)             CV                S
                      KCal/Mol        Cal/Mol-Kelvin    Cal/Mol-Kelvin
 Total                  166.661             62.005            127.680
 Electronic               0.000              0.000              0.000
 Translational            0.889              2.981             42.015
 Rotational               0.889              2.981             32.346
 Vibrational            164.884             56.043             53.319
 Vibration     1          0.594              1.981              5.227
 Vibration     2          0.595              1.978              4.914
 Vibration     3          0.599              1.964              3.950
 Vibration     4          0.605              1.946              3.385
 Vibration     5          0.611              1.926              2.993
 Vibration     6          0.618              1.902              2.667
 Vibration     7          0.628              1.872              2.373
 Vibration     8          0.630              1.865              2.313
 Vibration     9          0.636              1.844              2.161
 Vibration    10          0.656              1.785              1.827
 Vibration    11          0.669              1.744              1.653
 Vibration    12          0.677              1.719              1.564
 Vibration    13          0.680              1.711              1.534
 Vibration    14          0.688              1.686              1.454
 Vibration    15          0.705              1.638              1.316
 Vibration    16          0.718              1.601              1.225
 Vibration    17          0.723              1.588              1.194
 Vibration    18          0.730              1.567              1.147
 Vibration    19          0.743              1.531              1.074
 Vibration    20          0.756              1.496              1.009
 Vibration    21          0.763              1.478              0.976
 Vibration    22          0.778              1.440              0.913
 Vibration    23          0.820              1.333              0.759
 Vibration    24          0.833              1.302              0.720
 Vibration    25          0.848              1.266              0.676
 Vibration    26          0.907              1.135              0.540
 Vibration    27          0.959              1.031              0.449

 Normal termination of Gaussian 09 at Wed Jan 18 21:10:02 2017.
