 Gaussian 09, Revision E.01,
 Gaussian 09:  ES64L-G09RevE.01 30-Nov-2015

 ------------------------------------------------------
 # opt=(modredundant,MaxCycle=1000) freq B3LYP/6-31G(d)
 ------------------------------------------------------

 -------------------
 Title Card Required
 -------------------
 Symbolic Z-matrix:
 Charge =  0 Multiplicity = 1

 SCF Done:  E(RB3LYP) =  -839.973977659     A.U. after   14 cycles
 SCF Done:  E(RB3LYP) =  -839.985893872     A.U. after   11 cycles
 SCF Done:  E(RB3LYP) =  -839.990055127     A.U. after   11 cycles
 SCF Done:  E(RB3LYP) =  -839.992610960     A.U. after   11 cycles
 SCF Done:  E(RB3LYP) =  -839.993569174     A.U. after   10 cycles
 SCF Done:  E(RB3LYP) =  -839.994149488     A.U. after   11 cycles
 SCF Done:  E(RB3LYP) =  -839.994387442     A.U. after   10 cycles
 SCF Done:  E(RB3LYP) =  -839.994550766     A.U. after   10 cycles
 SCF Done:  E(RB3LYP) =  -839.994717373     A.U. after   10 cycles
 SCF Done:  E(RB3LYP) =  -839.994914168     A.U. after   10 cycles
 SCF Done:  E(RB3LYP) =  -839.995992036     A.U. after    9 cycles
 SCF Done:  E(RB3LYP) =  -839.995999949     A.U. after    8 cycles
 SCF Done:  E(RB3LYP) =  -839.996006383     A.U. after    9 cycles
 SCF Done:  E(RB3LYP) =  -839.996008463     A.U. after    7 cycles
 SCF Done:  E(RB3LYP) =  -839.996010252     A.U. after    8 cycles
 SCF Done:  E(RB3LYP) =  -839.996010901     A.U. after    7 cycles
 SCF Done:  E(RB3LYP) =  -839.996011255     A.U. after    7 cycles
 SCF Done:  E(RB3LYP) =  -839.996011506     A.U. after    7 cycles
 SCF Done:  E(RB3LYP) =  -839.996011573     A.U. after    6 cycles
 Optimization completed.
    -- Stationary point found.

 1\1\GINC-TATANKA\FOpt\RB3LYP\6-31G(d)\C6H16O8\AALRAWAS\16-Jan-2017\0\\
 # opt=(modredundant,MaxCycle=1000) freq B3LYP/6-31G(d)\\Title Card Req
 uired\\0,1\H,-1.8485023249,0.2040709033,1.4695502305\C,-1.2364193593,-
 0.1431708356,0.6297868989\C,0.9458457736,1.1100599832,0.4013172021\C,0
 .870862399,-1.4016227439,0.4567590098\C,1.5926861639,-0.1699093583,-0.
 1343045053\O,-0.3104325986,-1.0610463544,1.2218114659\C,-0.5337772166,
 1.1015478727,0.0428479096\H,1.524078647,-1.8540933622,1.2095921037\H,1
 .4632188275,-0.1916597084,-1.2270450473\H,-0.5979303439,1.0726541205,-

 Normal termination of Gaussian 09 at Mon Jan 16 22:45:44 2017.

 --------------------------------------------------------------------
 #N Geom=AllCheck Guess=TCheck SCRF=Check GenChk RB3LYP/6-31G(d) Freq
 --------------------------------------------------------------------

 Structure from the checkpoint file:  "//home/aalrawas/scratch/Gau-15930.chk"
 -------------------
 Title Card Required
 -------------------
 Charge =  0 Multiplicity = 1

                         Standard orientation:
 ---------------------------------------------------------------------
 Center     Atomic      Atomic             Coordinates (Angstroms)
 Number     Number       Type             X           Y           Z
 ---------------------------------------------------------------------
      1          1           0        1.707910    1.331668   -1.308709
      2          6           0        1.299624    0.786930   -0.450229
      3          6           0       -1.211074    0.517035   -0.543058
      4          6           0        0.309701   -1.446603   -0.157551
      5          6           0       -1.065358   -0.826172    0.176786
      6          8           0        1.168906   -0.561031   -0.915367
      7          6           0       -0.066965    1.428638   -0.121334
      8          1           0        0.151463   -2.280029   -0.849317
      9          1           0       -1.101211   -0.642911    1.261427
     10          1           0       -0.151985    1.568111    0.967230
     11          6           0        2.285747    0.936924    0.708755
     12          1           0        3.244113    0.461925    0.448132
     13          1           0        1.895161    0.446777    1.608462
     14          8           0        0.921964   -1.853048    1.028776
     15          1           0        1.736840   -2.334486    0.762381
     16          1           0       -1.180847    0.350294   -1.628413
     17          8           0        2.433314    2.348302    0.888059
     18          1           0        2.867595    2.505935    1.739077
     19          8           0       -2.039921   -1.767133   -0.216089
     20          1           0       -2.890658   -1.524140    0.215876
     21          8           0       -2.450009    1.139050   -0.184104
     22          1           0       -2.358581    2.072996   -0.441582
     23          8           0       -0.255691    2.687571   -0.765319
     24          1           0        0.376680    3.301632   -0.356458
     25          8           0        3.173628   -2.523320   -0.489067
     26          1           0        2.758607   -1.762617   -0.943414
     27          1           0        4.028810   -2.192234   -0.176380
     28          8           0       -4.392022   -0.608514    0.725874
     29          1           0       -3.894386    0.195839    0.465800
     30          1           0       -4.980923   -0.774281   -0.026436
 ---------------------------------------------------------------------

 SCF Done:  E(RB3LYP) =  -839.996011573     A.U. after    1 cycles

 The electronic state is 1-A.
 Alpha  occ. eigenvalues --  -19.17096 -19.16862 -19.16364 -19.16245 -19.15706
 Alpha  occ. eigenvalues --  -19.14168 -19.14132 -19.11911 -10.28084 -10.24824
 Alpha  occ. eigenvalues --  -10.24634 -10.24528 -10.23788 -10.23194  -1.06937
 Alpha  occ. eigenvalues --   -1.04707  -1.03947  -1.02359  -1.01404  -1.00262
 Alpha  occ. eigenvalues --   -0.99904  -0.99103  -0.78764  -0.76729  -0.69516
 Alpha  occ. eigenvalues --   -0.63990  -0.62847  -0.56816  -0.55663  -0.54427
 Alpha  occ. eigenvalues --   -0.53371  -0.52678  -0.52332  -0.51269  -0.48362
 Alpha  occ. eigenvalues --   -0.48003  -0.45950  -0.44799  -0.43872  -0.42282
 Alpha  occ. eigenvalues --   -0.41673  -0.40637  -0.39668  -0.38583  -0.37711
 Alpha  occ. eigenvalues --   -0.37350  -0.35548  -0.35125  -0.33672  -0.32182
 Alpha  occ. eigenvalues --   -0.30811  -0.30363  -0.29578  -0.28872  -0.28633
 Alpha  occ. eigenvalues --   -0.27715  -0.26634  -0.25006
 Alpha virt. eigenvalues --    0.03758   0.04834   0.06541   0.08812   0.09518
 Alpha virt. eigenvalues --    0.10576   0.11990   0.13557   0.13877   0.14890
 Alpha virt. eigenvalues --    0.15895   0.16644   0.16870   0.17419   0.18881

 Mulliken charges:
               1
     1  H    0.159940
     2  C    0.131845
     3  C    0.134423
     4  C    0.316610
     5  C    0.094555
     6  O   -0.536225
     7  C    0.079236
     8  H    0.167417
     9  H    0.142663
    10  H    0.133490
    11  C   -0.075794
    12  H    0.112678
    13  H    0.163236
    14  O   -0.644858
    15  H    0.421449
    16  H    0.144598
    17  O   -0.634329
    18  H    0.405609
    19  O   -0.679911
    20  H    0.422539
    21  O   -0.676207
    22  H    0.419649
    23  O   -0.656917
    24  H    0.411624
    25  O   -0.799334
    26  H    0.420699
    27  H    0.396280
    28  O   -0.800668
    29  H    0.431361
    30  H    0.394339
 Sum of Mulliken charges =   0.00000

 Dipole moment (field-independent basis, Debye):
    X=              3.1358    Y=              4.1149    Z=              0.5002  Tot=              5.1976
 Quadrupole moment (field-independent basis, Debye-Ang):
   XX=            -67.5165   YY=            -88.4789   ZZ=            -84.4659
   XY=             -0.8762   XZ=             11.9132   YZ=              5.0867

  Exact polarizability: 110.136   1.466  98.851   3.308   0.477  75.557
 Approx polarizability: 132.285   1.815 133.391   1.935  -0.227 117.254

 ******    1 imaginary frequencies (negative Signs) ******

                      1                      2                      3
                      A                      A                      A
 Frequencies --    -10.6565                36.6979                57.5629
 Red. masses --      5.2380                 5.8753                 5.7405
 Frc consts  --      0.0004                 0.0047                 0.0112
 IR Inten    --      3.0381                 3.4657                 3.1622

                      4                      5                      6
                      A                      A                      A
 Frequencies --     91.2515               103.1641               125.3771
 Red. masses --      5.7532                 4.8459                 4.6264
 Frc consts  --      0.0282                 0.0304                 0.0428
 IR Inten    --      4.0280                 0.8024                 0.9902

                      7                      8                      9
                      A                      A                      A
 Frequencies --    138.8001               162.7293               178.3792
 Red. masses --      5.4573                 4.3102                 5.6099
 Frc consts  --      0.0619                 0.0672                 0.1052
 IR Inten    --     11.8964                 8.3265                 3.1947

                     10                     11                     12
                      A                      A                      A
 Frequencies --    188.3073               201.0351               235.8298
 Red. masses --      5.1684                 3.6160                 1.1923
 Frc consts  --      0.1080                 0.0861                 0.0391
 IR Inten    --     16.4181                15.4999               152.8450

                     13                     14                     15
                      A                      A                      A
 Frequencies --    256.4356               270.2940               282.1667
 Red. masses --      1.1969                 1.1045                 3.8518
 Frc consts  --      0.0464                 0.0475                 0.1807
 IR Inten    --    106.4610                70.3603                29.1089

                     16                     17                     18
                      A                      A                      A
 Frequencies --    301.3083               311.3757               317.5721
 Red. masses --      4.1255                 3.8936                 2.6294
 Frc consts  --      0.2207                 0.2224                 0.1562
 IR Inten    --      0.6898                 9.2454                22.8765

                     19                     20                     21
                      A                      A                      A
 Frequencies --    365.1293               377.8432               385.0888
 Red. masses --      1.2333                 1.6827                 4.6051
 Frc consts  --      0.0969                 0.1415                 0.4024
 IR Inten    --     98.9950               111.3738                 6.1185

                     22                     23                     24
                      A                      A                      A
 Frequencies --    416.9738               442.6468               457.5837
 Red. masses --      3.5249                 1.2497                 1.5506
 Frc consts  --      0.3611                 0.1443                 0.1913
 IR Inten    --      5.9700               102.8426                69.9939

                     25                     26                     27
                      A                      A                      A
 Frequencies --    478.2932               500.5786               503.9050
 Red. masses --      2.2532                 3.7175                 5.2358
 Frc consts  --      0.3037                 0.5488                 0.7833
 IR Inten    --     70.5768                28.4010                11.6311

                     28                     29                     30
                      A                      A                      A
 Frequencies --    530.7638               583.3635               608.5018
 Red. masses --      4.4262                 2.7124                 1.5161
 Frc consts  --      0.7346                 0.5439                 0.3307
 IR Inten    --      6.4644                42.3594               176.0650

                     31                     32                     33
                      A                      A                      A
 Frequencies --    614.1786               653.2035               738.5347
 Red. masses --      2.2764                 1.1023                 4.1872
 Frc consts  --      0.5059                 0.2771                 1.3456
 IR Inten    --     87.5827               137.4377                37.6531

                     34                     35                     36
                      A                      A                      A
 Frequencies --    804.5436               857.3632               911.5085
 Red. masses --      1.1587                 1.0994                 2.1160
 Frc consts  --      0.4419                 0.4762                 1.0358
 IR Inten    --    163.2702               154.2407                 1.9163

                     37                     38                     39
                      A                      A                      A
 Frequencies --    935.1668              1018.3986              1030.8705
 Red. masses --      4.0737                 3.1926                 2.8883
 Frc consts  --      2.0990                 1.9509                 1.8084
 IR Inten    --    111.5287                56.6090                 9.3024

                     40                     41                     42
                      A                      A                      A
 Frequencies --   1047.6438              1055.4537              1063.9002
 Red. masses --      4.4333                 4.4704                 6.7432
 Frc consts  --      2.8668                 2.9341                 4.4969
 IR Inten    --    204.6256                81.6343               135.7613

                     43                     44                     45
                      A                      A                      A
 Frequencies --   1089.2910              1114.4529              1120.4873
 Red. masses --      2.5251                 3.7344                 2.2447
 Frc consts  --      1.7653                 2.7327                 1.6604
 IR Inten    --     16.5270                14.7710                16.3150

                     46                     47                     48
                      A                      A                      A
 Frequencies --   1135.5469              1149.0927              1157.7092
 Red. masses --      2.7686                 5.0343                 3.8654
 Frc consts  --      2.1034                 3.9165                 3.0524
 IR Inten    --    102.6475                68.7707                38.3854

                     49                     50                     51
                      A                      A                      A
 Frequencies --   1216.4679              1240.9632              1264.3696
 Red. masses --      1.2480                 1.2460                 1.1760
 Frc consts  --      1.0881                 1.1305                 1.1076
 IR Inten    --      9.7653                 4.0984                29.8873

                     52                     53                     54
                      A                      A                      A
 Frequencies --   1278.9851              1297.8385              1338.3797
 Red. masses --      1.1680                 1.1383                 1.2034
 Frc consts  --      1.1257                 1.1297                 1.2700
 IR Inten    --     10.9613                29.2210                12.9129

                     55                     56                     57
                      A                      A                      A
 Frequencies --   1352.5498              1371.0168              1378.6300
 Red. masses --      1.2464                 1.2492                 1.2033
 Frc consts  --      1.3434                 1.3835                 1.3475
 IR Inten    --     74.2338                19.7175                 8.5960

                     58                     59                     60
                      A                      A                      A
 Frequencies --   1381.8564              1405.8944              1412.1787
 Red. masses --      1.2317                 1.2893                 1.3186
 Frc consts  --      1.3858                 1.5015                 1.5493
 IR Inten    --     82.7892                 8.2150                14.0299

                     61                     62                     63
                      A                      A                      A
 Frequencies --   1449.4462              1454.5162              1466.6687
 Red. masses --      1.5290                 1.4297                 1.4771
 Frc consts  --      1.8926                 1.7821                 1.8721
 IR Inten    --     26.4876                 2.0283                 6.4584

                     64                     65                     66
                      A                      A                      A
 Frequencies --   1500.7283              1540.9104              1554.8877
 Red. masses --      1.2268                 1.4078                 1.0880
 Frc consts  --      1.6279                 1.9695                 1.5498
 IR Inten    --     37.2607                45.2317                 4.5292

                     67                     68                     69
                      A                      A                      A
 Frequencies --   1722.7219              1724.4402              3007.1609
 Red. masses --      1.0768                 1.0753                 1.0834
 Frc consts  --      1.8828                 1.8840                 5.7723
 IR Inten    --     58.2260                53.6351                 9.8880

                     70                     71                     72
                      A                      A                      A
 Frequencies --   3011.1361              3018.8101              3051.5709
 Red. masses --      1.0661                 1.0829                 1.0855
 Frc consts  --      5.6954                 5.8147                 5.9558
 IR Inten    --     71.7814                24.1804                44.9375

                     73                     74                     75
                      A                      A                      A
 Frequencies --   3072.2218              3091.6941              3096.4609
 Red. masses --      1.0876                 1.0952                 1.0886
 Frc consts  --      6.0484                 6.1679                 6.1499
 IR Inten    --      3.4322                41.5669                30.5307

                     76                     77                     78
                      A                      A                      A
 Frequencies --   3475.2180              3521.9638              3588.6204
 Red. masses --      1.0670                 1.0652                 1.0563
 Frc consts  --      7.5921                 7.7848                 8.0144
 IR Inten    --    400.4075               201.8944               556.4471

                     79                     80                     81
                      A                      A                      A
 Frequencies --   3617.3517              3707.5185              3731.1203
 Red. masses --      1.0545                 1.0655                 1.0661
 Frc consts  --      8.1296                 8.6290                 8.7445
 IR Inten    --    277.9824                55.0711                41.1302

                     82                     83                     84
                      A                      A                      A
 Frequencies --   3769.1234              3794.2856              3808.5050
 Red. masses --      1.0668                 1.0713                 1.0737
 Frc consts  --      8.9293                 9.0869                 9.1759
 IR Inten    --     29.4413                79.2408                70.3003

 - Thermochemistry -
 -------------------
 Temperature   298.150 Kelvin.  Pressure   1.00000 Atm.
 Atom     1 has atomic number  1 and mass   1.00783

 Molecular mass:   216.08452 amu.
 Principal axes and moments of inertia in atomic units:
                           1         2         3
     Eigenvalues --  2371.102303866.556215564.29104
           X            0.99997  -0.00571   0.00457
           Y            0.00568   0.99996   0.00744
           Z           -0.00461  -0.00742   0.99996
 This molecule is an asymmetric top.
 Rotational symmetry number  1.
 Warning -- assumption of classical behavior for rotation
           may cause significant error
 Rotational temperatures (Kelvin)      0.03653     0.02240     0.01557
 Rotational constants (GHZ):           0.76114     0.46676     0.32434
    1 imaginary frequencies ignored.
 Zero-point vibrational energy     652697.6 (Joules/Mol)
                                  155.99847 (Kcal/Mol)
 Warning -- explicit consideration of  30 degrees of freedom as
           vibrations may cause significant error
 Vibrational temperatures:     52.80    82.82   131.29   148.43   180.39
          (Kelvin)            199.70   234.13   256.65   270.93   289.24
                              339.31   368.95   388.89   405.97   433.51
                              448.00   456.91   525.34   543.63   554.06
                              599.93   636.87   658.36   688.16   720.22
                              725.01   763.65   839.33   875.50   883.66
                              939.81  1062.59  1157.56  1233.55  1311.46
                             1345.49  1465.25  1483.19  1507.32  1518.56
                             1530.71  1567.24  1603.45  1612.13  1633.80
                             1653.29  1665.68  1750.22  1785.47  1819.14
                             1840.17  1867.30  1925.63  1946.01  1972.58
                             1983.54  1988.18  2022.77  2031.81  2085.43
                             2092.72  2110.21  2159.21  2217.02  2237.13
                             2478.61  2481.08  4326.63  4332.35  4343.39
                             4390.52  4420.24  4448.25  4455.11  5000.06
                             5067.31  5163.22  5204.56  5334.29  5368.24
                             5422.92  5459.12  5479.58

 Zero-point correction=                           0.248599 (Hartree/Particle)
 Thermal correction to Energy=                    0.265514
 Thermal correction to Enthalpy=                  0.266458
 Thermal correction to Gibbs Free Energy=         0.205131
 Sum of electronic and zero-point Energies=           -839.747412
 Sum of electronic and thermal Energies=              -839.730497
 Sum of electronic and thermal Enthalpies=            -839.729553
 Sum of electronic and thermal Free Energies=         -839.790880

                     E (Thermal)             CV                S
                      KCal/Mol        Cal/Mol-Kelvin    Cal/Mol-Kelvin
 Total                  166.613             63.032            129.074
 Electronic               0.000              0.000              0.000
 Translational            0.889              2.981             42.015
 Rotational               0.889              2.981             32.301
 Vibrational            164.835             57.071             54.759
 Vibration     1          0.594              1.982              5.430
 Vibration     2          0.596              1.974              4.539
 Vibration     3          0.602              1.955              3.633
 Vibration     4          0.605              1.947              3.394
 Vibration     5          0.610              1.928              3.016
 Vibration     6          0.614              1.915              2.820
 Vibration     7          0.623              1.888              2.518
 Vibration     8          0.629              1.869              2.345
 Vibration     9          0.633              1.856              2.244
 Vibration    10          0.638              1.838              2.124
 Vibration    11          0.655              1.786              1.834
 Vibration    12          0.666              1.752              1.686
 Vibration    13          0.674              1.728              1.594
 Vibration    14          0.681              1.707              1.521
 Vibration    15          0.693              1.671              1.410
 Vibration    16          0.700              1.652              1.355
 Vibration    17          0.704              1.640              1.323
 Vibration    18          0.738              1.544              1.100
 Vibration    19          0.748              1.517              1.048
 Vibration    20          0.754              1.502              1.019
 Vibration    21          0.780              1.433              0.902
 Vibration    22          0.802              1.377              0.818
 Vibration    23          0.816              1.344              0.773
 Vibration    24          0.835              1.298              0.715
 Vibration    25          0.856              1.249              0.657
 Vibration    26          0.859              1.241              0.648
 Vibration    27          0.886              1.182              0.586
 Vibration    28          0.940              1.067              0.479
 Vibration    29          0.967              1.014              0.435
 Vibration    30          0.974              1.002              0.426

 1\1\GINC-TATANKA\Freq\RB3LYP\6-31G(d)\C6H16O8\AALRAWAS\16-Jan-2017\0\\
 #N Geom=AllCheck Guess=TCheck SCRF=Check GenChk RB3LYP/6-31G(d) Freq\\
 Title Card Required\\0,1\H,-1.8485023249,0.2040709033,1.4695502305\C,-
 1.2364193593,-0.1431708356,0.6297868989\C,0.9458457736,1.1100599832,0.
 4013172021\C,0.870862399,-1.4016227439,0.4567590098\C,1.5926861639,-0.
 1699093583,-0.1343045053\O,-0.3104325986,-1.0610463544,1.2218114659\C,
 -0.5337772166,1.1015478727,0.0428479096\H,1.524078647,-1.8540933622,1.
 2095921037\H,1.4632188275,-0.1916597084,-1.2270450473\H,-0.5979303439,

 Normal termination of Gaussian 09 at Mon Jan 16 22:50:01 2017.
