 Gaussian 09, Revision D.01,
 Gaussian 09:  ES64L-G09RevD.01 24-Apr-2013

 ------------------------------------------------------
 # opt=(modredundant,MaxCycle=1000) freq B3LYP/6-31G(d)
 ------------------------------------------------------

 ------------------------
 boat4_Beta_B3LYP_6-31G_d
 ------------------------
 Symbolic Z-matrix:
 Charge =  0 Multiplicity = 1

 SCF Done:  E(RB3LYP) =  -839.961994382     A.U. after   14 cycles
 SCF Done:  E(RB3LYP) =  -839.981432165     A.U. after   12 cycles
 SCF Done:  E(RB3LYP) =  -839.988753834     A.U. after   12 cycles
 SCF Done:  E(RB3LYP) =  -839.990393312     A.U. after   11 cycles
 SCF Done:  E(RB3LYP) =  -839.990893484     A.U. after   12 cycles
 SCF Done:  E(RB3LYP) =  -839.991529979     A.U. after   11 cycles
 SCF Done:  E(RB3LYP) =  -839.991716981     A.U. after   11 cycles
 SCF Done:  E(RB3LYP) =  -839.992003689     A.U. after   11 cycles
 SCF Done:  E(RB3LYP) =  -839.992189751     A.U. after   11 cycles
 SCF Done:  E(RB3LYP) =  -839.992306711     A.U. after   11 cycles
 SCF Done:  E(RB3LYP) =  -839.993134634     A.U. after    9 cycles
 SCF Done:  E(RB3LYP) =  -839.993168594     A.U. after    9 cycles
 SCF Done:  E(RB3LYP) =  -839.993179489     A.U. after    8 cycles
 SCF Done:  E(RB3LYP) =  -839.993186039     A.U. after    9 cycles
 SCF Done:  E(RB3LYP) =  -839.993187542     A.U. after    7 cycles
 SCF Done:  E(RB3LYP) =  -839.993187965     A.U. after    7 cycles
 SCF Done:  E(RB3LYP) =  -839.993188361     A.U. after    7 cycles
 SCF Done:  E(RB3LYP) =  -839.993188702     A.U. after    6 cycles
 SCF Done:  E(RB3LYP) =  -839.993188839     A.U. after    6 cycles
 Optimization completed.
    -- Stationary point found.
 Normal termination of Gaussian 09 at Thu Jan 19 22:04:52 2017.

 --------------------------------------------------------------------
 #N Geom=AllCheck Guess=TCheck SCRF=Check GenChk RB3LYP/6-31G(d) Freq
 --------------------------------------------------------------------

 Structure from the checkpoint file:  "/home/iawad/Gau-24368.chk"
 ------------------------
 boat4_Beta_B3LYP_6-31G_d
 ------------------------
 Charge =  0 Multiplicity = 1

                         Standard orientation:
 ---------------------------------------------------------------------
 Center     Atomic      Atomic             Coordinates (Angstroms)
 Number     Number       Type             X           Y           Z
 ---------------------------------------------------------------------
      1          8           0       -1.524863   -0.158742    0.770742
      2          6           0        0.677585    0.500503   -0.215457
      3          6           0        0.098377   -1.940527    0.206126
      4          6           0        1.230522   -0.896047    0.097081
      5          6           0       -1.303991   -1.351287   -0.004085
      6          6           0       -0.505626    0.852105    0.706149
      7          1           0        1.701442   -0.842724    1.091772
      8          1           0       -0.100477    0.975662    1.721819
      9          1           0        0.365446    0.522150   -1.265371
     10          1           0       -2.059986   -2.038891    0.401164
     11          6           0       -1.207740    2.149118    0.274154
     12          1           0       -1.571118    2.031519   -0.751494
     13          1           0       -2.072226    2.334835    0.927320
     14          1           0        0.266548   -2.683773   -0.581730
     15          8           0       -1.496897   -1.122563   -1.366485
     16          1           0       -2.426849   -0.819509   -1.463771
     17          8           0       -0.333772    3.284408    0.252838
     18          1           0       -0.149045    3.534621    1.172585
     19          8           0        0.196741   -2.519486    1.506736
     20          1           0       -0.366850   -3.308779    1.527318
     21          8           0        2.137457   -1.346641   -0.883674
     22          1           0        2.969314   -0.826051   -0.807229
     23          8           0        1.718314    1.464652    0.018204
     24          1           0        1.320606    2.340781   -0.152883
     25          8           0       -3.963721    0.001660   -0.705887
     26          1           0       -4.185371    0.864429   -1.087416
     27          1           0       -3.382773    0.200570    0.054817
     28          8           0        4.231785    0.456057   -0.493831
     29          1           0        4.579523    0.313393    0.399599
     30          1           0        3.456698    1.043827   -0.359466
 ---------------------------------------------------------------------

 SCF Done:  E(RB3LYP) =  -839.993188839     A.U. after    1 cycles

 The electronic state is 1-A.
 Alpha  occ. eigenvalues --  -19.18952 -19.17218 -19.16567 -19.16204 -19.14740
 Alpha  occ. eigenvalues --  -19.14437 -19.13964 -19.11389 -10.28711 -10.25963
 Alpha  occ. eigenvalues --  -10.25344 -10.23901 -10.23401 -10.22970  -1.07494
 Alpha  occ. eigenvalues --   -1.05800  -1.03280  -1.02318  -1.01934  -1.00332
 Alpha  occ. eigenvalues --   -0.99923  -0.98740  -0.78630  -0.76493  -0.69886
 Alpha  occ. eigenvalues --   -0.64784  -0.63393  -0.56325  -0.55592  -0.54861
 Alpha  occ. eigenvalues --   -0.54366  -0.52789  -0.51983  -0.51307  -0.49229
 Alpha  occ. eigenvalues --   -0.48112  -0.46724  -0.44842  -0.43886  -0.42514
 Alpha  occ. eigenvalues --   -0.41282  -0.40279  -0.39724  -0.39081  -0.38616
 Alpha  occ. eigenvalues --   -0.37165  -0.36035  -0.34741  -0.33968  -0.32441
 Alpha  occ. eigenvalues --   -0.31460  -0.31045  -0.29868  -0.28987  -0.28039
 Alpha  occ. eigenvalues --   -0.27352  -0.26410  -0.24533
 Alpha virt. eigenvalues --    0.03245   0.04574   0.06895   0.07752   0.08592
 Alpha virt. eigenvalues --    0.10930   0.12159   0.12716   0.12923   0.14028
 Alpha virt. eigenvalues --    0.15518   0.16282   0.17147   0.18295   0.18774

 Mulliken charges:
               1
     1  O   -0.538720
     2  C    0.089072
     3  C    0.108773
     4  C    0.125097
     5  C    0.292369
     6  C    0.123541
     7  H    0.133831
     8  H    0.134603
     9  H    0.163026
    10  H    0.124315
    11  C   -0.080608
    12  H    0.159423
    13  H    0.142122
    14  H    0.170155
    15  O   -0.638985
    16  H    0.422201
    17  O   -0.618862
    18  H    0.406711
    19  O   -0.633888
    20  H    0.392037
    21  O   -0.674431
    22  H    0.423847
    23  O   -0.689458
    24  H    0.422200
    25  O   -0.800164
    26  H    0.399468
    27  H    0.423014
    28  O   -0.801829
    29  H    0.391859
    30  H    0.429279
 Sum of Mulliken charges =   0.00000

 Dipole moment (field-independent basis, Debye):
    X=             -2.9563    Y=              3.4712    Z=              3.2966  Tot=              5.6264
 Quadrupole moment (field-independent basis, Debye-Ang):
   XX=            -86.8922   YY=            -73.9719   ZZ=            -86.1581
   XY=             -1.0308   XZ=              8.6112   YZ=              1.1527

  Exact polarizability: 105.890   0.969  99.544   2.360   0.957  79.643
 Approx polarizability: 133.121   4.037 128.247   2.698   2.531 124.403

 ******    1 imaginary frequencies (negative Signs) ******

                      1                      2                      3
                      A                      A                      A
 Frequencies --    -20.1871                46.0390                59.2180
 Red. masses --      5.4750                 5.9705                 5.6207
 Frc consts  --      0.0013                 0.0075                 0.0116
 IR Inten    --      0.7346                 1.4732                 3.0805

                      4                      5                      6
                      A                      A                      A
 Frequencies --     75.2383               112.9151               132.8450
 Red. masses --      5.4212                 4.6606                 4.8498
 Frc consts  --      0.0181                 0.0350                 0.0504
 IR Inten    --      0.9829                 1.5918                11.1101

                      7                      8                      9
                      A                      A                      A
 Frequencies --    148.0355               165.6674               177.1027
 Red. masses --      4.5632                 6.0536                 3.9757
 Frc consts  --      0.0589                 0.0979                 0.0735
 IR Inten    --      5.6463                 1.5684                20.2838

                     10                     11                     12
                      A                      A                      A
 Frequencies --    193.3872               234.3155               249.0134
 Red. masses --      6.5855                 2.5035                 1.8385
 Frc consts  --      0.1451                 0.0810                 0.0672
 IR Inten    --     24.4214                 8.1993                95.4130

                     13                     14                     15
                      A                      A                      A
 Frequencies --    261.6670               275.5455               284.5220
 Red. masses --      3.1014                 1.8276                 1.4127
 Frc consts  --      0.1251                 0.0818                 0.0674
 IR Inten    --     60.7517                61.9466                13.9432

                     16                     17                     18
                      A                      A                      A
 Frequencies --    297.5445               324.2285               346.9273
 Red. masses --      1.4565                 1.1354                 1.4999
 Frc consts  --      0.0760                 0.0703                 0.1064
 IR Inten    --     49.8001               204.5840                61.2622

                     19                     20                     21
                      A                      A                      A
 Frequencies --    352.9867               367.5288               384.0002
 Red. masses --      2.5790                 1.6234                 2.2384
 Frc consts  --      0.1893                 0.1292                 0.1945
 IR Inten    --      6.0576                77.4897                74.9334

                     22                     23                     24
                      A                      A                      A
 Frequencies --    390.0551               419.0317               454.7226
 Red. masses --      4.6317                 4.9478                 3.6891
 Frc consts  --      0.4152                 0.5119                 0.4494
 IR Inten    --      9.5627                13.5214                28.7600

                     25                     26                     27
                      A                      A                      A
 Frequencies --    467.7381               529.0036               545.8498
 Red. masses --      5.2645                 4.7786                 3.6019
 Frc consts  --      0.6786                 0.7879                 0.6323
 IR Inten    --      7.9781                 0.8955                11.3989

                     28                     29                     30
                      A                      A                      A
 Frequencies --    571.7931               584.9609               611.6257
 Red. masses --      2.3907                 1.4747                 3.4899
 Frc consts  --      0.4605                 0.2973                 0.7692
 IR Inten    --     56.6041               110.7757                69.8729

                     31                     32                     33
                      A                      A                      A
 Frequencies --    651.6901               716.6823               778.8051
 Red. masses --      1.1205                 1.0943                 1.1371
 Frc consts  --      0.2804                 0.3312                 0.4063
 IR Inten    --     33.1458               310.1216               199.2441

                     34                     35                     36
                      A                      A                      A
 Frequencies --    804.0308               867.0741               902.3698
 Red. masses --      5.5325                 1.4371                 1.7755
 Frc consts  --      2.1073                 0.6366                 0.8518
 IR Inten    --     51.7075               118.3854                53.0623

                     37                     38                     39
                      A                      A                      A
 Frequencies --    906.3953               989.0987              1023.0053
 Red. masses --      1.8520                 3.2738                 3.8139
 Frc consts  --      0.8965                 1.8870                 2.3516
 IR Inten    --      7.7169                33.8465                48.5866

                     40                     41                     42
                      A                      A                      A
 Frequencies --   1043.5089              1049.7781              1070.9146
 Red. masses --      3.2579                 4.4404                 5.4653
 Frc consts  --      2.0902                 2.8831                 3.6929
 IR Inten    --     61.9798               132.8157               123.6836

                     43                     44                     45
                      A                      A                      A
 Frequencies --   1086.9645              1097.9924              1124.3084
 Red. masses --      3.5076                 3.0508                 2.7248
 Frc consts  --      2.4417                 2.1671                 2.0293
 IR Inten    --     22.8704                52.8930                80.4039

                     46                     47                     48
                      A                      A                      A
 Frequencies --   1126.0683              1137.6616              1155.6817
 Red. masses --      2.8493                 3.3970                 3.5799
 Frc consts  --      2.1287                 2.5904                 2.8171
 IR Inten    --     65.5229                46.6597                38.6366

                     49                     50                     51
                      A                      A                      A
 Frequencies --   1202.5734              1243.8534              1275.1162
 Red. masses --      1.5069                 1.1286                 1.2007
 Frc consts  --      1.2840                 1.0288                 1.1502
 IR Inten    --      5.5565                33.5931                51.8119

                     52                     53                     54
                      A                      A                      A
 Frequencies --   1309.3312              1319.9690              1329.9859
 Red. masses --      1.1623                 1.1443                 1.2153
 Frc consts  --      1.1740                 1.1747                 1.2666
 IR Inten    --     14.1027                15.1572                 3.5701

                     55                     56                     57
                      A                      A                      A
 Frequencies --   1347.3570              1353.9325              1391.7129
 Red. masses --      1.2362                 1.3151                 1.2264
 Frc consts  --      1.3222                 1.4204                 1.3995
 IR Inten    --      9.9941                11.8886                42.8276

                     58                     59                     60
                      A                      A                      A
 Frequencies --   1397.9201              1407.3799              1418.3004
 Red. masses --      1.2473                 1.2351                 1.2753
 Frc consts  --      1.4361                 1.4414                 1.5115
 IR Inten    --     40.0935                21.2776                12.7179

                     61                     62                     63
                      A                      A                      A
 Frequencies --   1428.3315              1433.9893              1468.9505
 Red. masses --      1.3744                 1.3445                 1.4568
 Frc consts  --      1.6521                 1.6289                 1.8521
 IR Inten    --     18.0102                57.8363                29.6296

                     64                     65                     66
                      A                      A                      A
 Frequencies --   1505.2476              1525.1784              1535.9995
 Red. masses --      1.3750                 1.3979                 1.0981
 Frc consts  --      1.8355                 1.9158                 1.5264
 IR Inten    --      7.7974                68.1952                 3.0049

                     67                     68                     69
                      A                      A                      A
 Frequencies --   1721.0200              1722.0182              2999.6120
 Red. masses --      1.0757                 1.0766                 1.0831
 Frc consts  --      1.8772                 1.8809                 5.7417
 IR Inten    --     55.4550                68.9688                17.3646

                     70                     71                     72
                      A                      A                      A
 Frequencies --   3017.7908              3031.2482              3032.3150
 Red. masses --      1.0838                 1.0816                 1.0711
 Frc consts  --      5.8151                 5.8556                 5.8029
 IR Inten    --     44.9846                39.0158                79.2515

                     73                     74                     75
                      A                      A                      A
 Frequencies --   3076.1336              3083.9626              3115.8577
 Red. masses --      1.0858                 1.0858                 1.1000
 Frc consts  --      6.0536                 6.0843                 6.2922
 IR Inten    --     13.8773                21.2561                29.8983

                     76                     77                     78
                      A                      A                      A
 Frequencies --   3476.4706              3523.4279              3568.4689
 Red. masses --      1.0664                 1.0654                 1.0582
 Frc consts  --      7.5934                 7.7931                 7.9395
 IR Inten    --    274.8044               254.0818               730.2916

                     79                     80                     81
                      A                      A                      A
 Frequencies --   3624.4661              3628.3960              3736.0233
 Red. masses --      1.0644                 1.0546                 1.0662
 Frc consts  --      8.2381                 8.1799                 8.7684
 IR Inten    --    129.3572               247.7047                28.3844

                     82                     83                     84
                      A                      A                      A
 Frequencies --   3738.9011              3796.8070              3809.4423
 Red. masses --      1.0662                 1.0706                 1.0745
 Frc consts  --      8.7814                 9.0932                 9.1874
 IR Inten    --     12.2180                67.6152                72.8323

 - Thermochemistry -
 -------------------
 Temperature   298.150 Kelvin.  Pressure   1.00000 Atm.
 Atom     1 has atomic number  8 and mass  15.99491

 Molecular mass:   216.08452 amu.
 Principal axes and moments of inertia in atomic units:
                           1         2         3
     Eigenvalues --  2448.141593629.998465186.03931
           X            0.99997  -0.00555   0.00603
           Y            0.00554   0.99998   0.00205
           Z           -0.00604  -0.00202   0.99998
 This molecule is an asymmetric top.
 Rotational symmetry number  1.
 Warning -- assumption of classical behavior for rotation
           may cause significant error
 Rotational temperatures (Kelvin)      0.03538     0.02386     0.01670
 Rotational constants (GHZ):           0.73719     0.49717     0.34800
    1 imaginary frequencies ignored.
 Zero-point vibrational energy     653119.3 (Joules/Mol)
                                  156.09927 (Kcal/Mol)
 Warning -- explicit consideration of  29 degrees of freedom as
           vibrations may cause significant error
 Vibrational temperatures:     66.24    85.20   108.25   162.46   191.13
          (Kelvin)            212.99   238.36   254.81   278.24   337.13
                              358.27   376.48   396.45   409.36   428.10
                              466.49   499.15   507.87   528.79   552.49
                              561.20   602.89   654.24   672.97   761.12
                              785.36   822.68   841.63   879.99   937.64
                             1031.14  1120.53  1156.82  1247.52  1298.31
                             1304.10  1423.09  1471.87  1501.37  1510.39
                             1540.81  1563.90  1579.76  1617.63  1620.16
                             1636.84  1662.77  1730.23  1789.63  1834.61
                             1883.83  1899.14  1913.55  1938.54  1948.00
                             2002.36  2011.29  2024.90  2040.62  2055.05
                             2063.19  2113.49  2165.71  2194.39  2209.96
                             2476.16  2477.60  4315.77  4341.92  4361.28
                             4362.82  4425.86  4437.13  4483.02  5001.86
                             5069.42  5134.22  5214.79  5220.45  5375.30
                             5379.44  5462.75  5480.93

 Zero-point correction=                           0.248760 (Hartree/Particle)
 Thermal correction to Energy=                    0.265453
 Thermal correction to Enthalpy=                  0.266397
 Thermal correction to Gibbs Free Energy=         0.205752
 Sum of electronic and zero-point Energies=           -839.744429
 Sum of electronic and thermal Energies=              -839.727736
 Sum of electronic and thermal Enthalpies=            -839.726792
 Sum of electronic and thermal Free Energies=         -839.787437

                     E (Thermal)             CV                S
                      KCal/Mol        Cal/Mol-Kelvin    Cal/Mol-Kelvin
 Total                  166.574             62.601            127.638
 Electronic               0.000              0.000              0.000
 Translational            0.889              2.981             42.015
 Rotational               0.889              2.981             32.200
 Vibrational            164.797             56.639             53.424
 Vibration     1          0.595              1.979              4.981
 Vibration     2          0.597              1.974              4.483
 Vibration     3          0.599              1.966              4.011
 Vibration     4          0.607              1.939              3.218
 Vibration     5          0.613              1.921              2.904
 Vibration     6          0.617              1.905              2.697
 Vibration     7          0.624              1.885              2.484
 Vibration     8          0.628              1.871              2.359
 Vibration     9          0.635              1.849              2.195
 Vibration    10          0.654              1.788              1.846
 Vibration    11          0.662              1.764              1.738
 Vibration    12          0.669              1.743              1.651
 Vibration    13          0.677              1.719              1.561
 Vibration    14          0.683              1.702              1.506
 Vibration    15          0.691              1.678              1.431
 Vibration    16          0.709              1.627              1.289
 Vibration    17          0.725              1.582              1.180
 Vibration    18          0.729              1.569              1.153
 Vibration    19          0.740              1.539              1.090
 Vibration    20          0.753              1.504              1.023
 Vibration    21          0.758              1.491              1.000
 Vibration    22          0.782              1.429              0.895
 Vibration    23          0.813              1.350              0.782
 Vibration    24          0.825              1.322              0.744
 Vibration    25          0.884              1.186              0.589
 Vibration    26          0.901              1.149              0.553
 Vibration    27          0.928              1.092              0.501
 Vibration    28          0.942              1.064              0.476
 Vibration    29          0.971              1.007              0.430

 Normal termination of Gaussian 09 at Thu Jan 19 22:09:21 2017.
