 Gaussian 09, Revision D.01,
 Gaussian 09:  AM64L-G09RevD.01 24-Apr-2013

 ----------------------------------------------------------
 # opt=(TS, CalcFC, NoEigenTest, MaxCycle=500) Freq G3MP2B3
 ----------------------------------------------------------

 ----------------------
 glo_1w_Beta_G3MP2B3_00
 ----------------------
 Symbolic Z-matrix:
 Charge =  0 Multiplicity = 1

 SCF Done:  E(RB3LYP) =  -839.957849929     A.U. after   14 cycles
 Optimization completed.
    -- Stationary point found.
 Normal termination of Gaussian 09 at Sun Jun  5 00:21:43 2016.

 ------------------------------------------------------------
 #N Geom=AllCheck Guess=TCheck SCRF=Check B3LYP/6-31G(d) Freq
 ------------------------------------------------------------

 Structure from the checkpoint file:  "/home/iawad/scratch/MAIN/PRO_Halides/direct/TsF/glo_1w_Beta/glo_1w_Beta_G3MP2B3_00.chk"
 ----------------------
 glo_1w_Beta_G3MP2B3_00
 ----------------------
 Charge =  0 Multiplicity = 1

 SCF Done:  E(RB3LYP) =  -839.957849929     A.U. after    1 cycles

  Exact polarizability: 111.465  -3.341 107.652   2.411   2.566  80.640
 Approx polarizability: 150.051  -6.553 141.539   5.583   4.558 124.572

 ******    1 imaginary frequencies (negative Signs) ******

                      1                      2                      3
                      A                      A                      A
 Frequencies --  -1455.4305                36.0886                54.2306
 Red. masses --      1.1040                 5.9898                 6.8961
 Frc consts  --      1.3779                 0.0046                 0.0119
 IR Inten    --    341.1078                 0.6339                 0.9388

                      4                      5                      6
                      A                      A                      A
 Frequencies --     79.5085                94.7679               118.8137
 Red. masses --      5.6535                 5.5338                 6.7103
 Frc consts  --      0.0211                 0.0293                 0.0558
 IR Inten    --      1.0206                10.0906                 4.5506

                      7                      8                      9
                      A                      A                      A
 Frequencies --    154.4841               171.3318               191.0730
 Red. masses --      3.9308                 3.4010                 4.8752
 Frc consts  --      0.0553                 0.0588                 0.1049
 IR Inten    --     13.6968                 2.1389                 8.6838

                     10                     11                     12
                      A                      A                      A
 Frequencies --    205.4473               262.9471               270.0824
 Red. masses --      5.6695                 2.9302                 1.4931
 Frc consts  --      0.1410                 0.1194                 0.0642
 IR Inten    --      8.1356                22.3518                91.8175

                     13                     14                     15
                      A                      A                      A
 Frequencies --    280.0532               295.5110               302.2884
 Red. masses --      3.9282                 1.1665                 3.7887
 Frc consts  --      0.1815                 0.0600                 0.2040
 IR Inten    --     17.9351                73.1600                33.0986

                     16                     17                     18
                      A                      A                      A
 Frequencies --    330.5443               351.9262               384.1138
 Red. masses --      4.6199                 3.1975                 4.2939
 Frc consts  --      0.2974                 0.2333                 0.3733
 IR Inten    --      7.5370                37.6491                32.3447

                     19                     20                     21
                      A                      A                      A
 Frequencies --    390.5364               398.4394               429.2736
 Red. masses --      1.8532                 3.6504                 4.7961
 Frc consts  --      0.1665                 0.3414                 0.5207
 IR Inten    --    107.1424                 0.6473                20.3584

                     22                     23                     24
                      A                      A                      A
 Frequencies --    451.5317               499.9260               526.5686
 Red. masses --      5.1211                 6.4604                 2.9919
 Frc consts  --      0.6152                 0.9513                 0.4888
 IR Inten    --     13.1933                33.1635                 4.1331

                     25                     26                     27
                      A                      A                      A
 Frequencies --    536.9296               551.6916               556.0841
 Red. masses --      3.1446                 1.4192                 1.4364
 Frc consts  --      0.5341                 0.2545                 0.2617
 IR Inten    --     19.9723                73.3393                12.5183

                     28                     29                     30
                      A                      A                      A
 Frequencies --    573.3196               591.1005               609.2655
 Red. masses --      3.1301                 1.1318                 2.6006
 Frc consts  --      0.6062                 0.2330                 0.5688
 IR Inten    --    257.4143               159.4879                34.3900

                     31                     32                     33
                      A                      A                      A
 Frequencies --    639.6040               653.9879               683.0019
 Red. masses --      1.9550                 1.5984                 1.2204
 Frc consts  --      0.4712                 0.4028                 0.3354
 IR Inten    --     13.8476                27.1808               109.5058

                     34                     35                     36
                      A                      A                      A
 Frequencies --    703.7974               899.0014               917.0722
 Red. masses --      2.8093                 1.0961                 1.7936
 Frc consts  --      0.8199                 0.5219                 0.8888
 IR Inten    --    123.8745               198.4563                 6.7463

                     37                     38                     39
                      A                      A                      A
 Frequencies --   1005.9121              1036.2403              1054.4525
 Red. masses --      3.6109                 3.9380                 3.9060
 Frc consts  --      2.1527                 2.4914                 2.5588
 IR Inten    --      8.5166                81.3887               263.8373

                     40                     41                     42
                      A                      A                      A
 Frequencies --   1062.1906              1081.7474              1110.0229
 Red. masses --      3.6478                 1.9100                 2.4966
 Frc consts  --      2.4248                 1.3168                 1.8125
 IR Inten    --     57.0555               188.6745               104.9776

                     43                     44                     45
                      A                      A                      A
 Frequencies --   1112.0701              1117.6419              1132.3212
 Red. masses --      5.8634                 3.8051                 3.0589
 Frc consts  --      4.2723                 2.8004                 2.3108
 IR Inten    --    403.0252                31.4903                26.4570

                     46                     47                     48
                      A                      A                      A
 Frequencies --   1154.2133              1163.1031              1227.0120
 Red. masses --      2.5675                 2.5745                 1.2287
 Frc consts  --      2.0153                 2.0520                 1.0900
 IR Inten    --     10.4060                76.1830               105.1563

                     49                     50                     51
                      A                      A                      A
 Frequencies --   1253.0681              1260.4044              1263.3843
 Red. masses --      1.2192                 1.2432                 1.1847
 Frc consts  --      1.1279                 1.1636                 1.1141
 IR Inten    --    658.2958               196.7739               660.8429

                     52                     53                     54
                      A                      A                      A
 Frequencies --   1301.8435              1318.7388              1348.2221
 Red. masses --      1.1268                 1.1523                 1.1660
 Frc consts  --      1.1252                 1.1807                 1.2487
 IR Inten    --    354.5734                10.3286                41.6988

                     55                     56                     57
                      A                      A                      A
 Frequencies --   1349.5211              1374.9071              1390.5675
 Red. masses --      1.0545                 1.2654                 1.2730
 Frc consts  --      1.1315                 1.4093                 1.4503
 IR Inten    --     44.7882                10.5705                71.2157

                     58                     59                     60
                      A                      A                      A
 Frequencies --   1394.5393              1403.3418              1430.2811
 Red. masses --      1.2017                 1.2531                 1.3626
 Frc consts  --      1.3770                 1.4540                 1.6424
 IR Inten    --    249.2605               476.3123               278.0916

                     61                     62                     63
                      A                      A                      A
 Frequencies --   1441.6753              1455.7945              1488.0624
 Red. masses --      1.5149                 1.4384                 1.4192
 Frc consts  --      1.8550                 1.7960                 1.8516
 IR Inten    --    207.2658                29.0613                22.9654

                     64                     65                     66
                      A                      A                      A
 Frequencies --   1523.2279              1531.8826              1548.7981
 Red. masses --      1.2473                 1.2637                 1.0964
 Frc consts  --      1.7051                 1.7473                 1.5495
 IR Inten    --     58.0553               211.0126                 6.9950

                     67                     68                     69
                      A                      A                      A
 Frequencies --   1586.8841              1647.0878              1726.4256
 Red. masses --      1.3108                 1.7668                 1.0750
 Frc consts  --      1.9449                 2.8240                 1.8879
 IR Inten    --     56.5933               376.8970                58.4891

                     70                     71                     72
                      A                      A                      A
 Frequencies --   1915.3331              2964.7165              2981.8943
 Red. masses --      1.0211                 1.0817                 1.0813
 Frc consts  --      2.2071                 5.6017                 5.6648
 IR Inten    --     41.2366                35.5240                26.3723

                     73                     74                     75
                      A                      A                      A
 Frequencies --   2999.5132              3012.1521              3028.0522
 Red. masses --      1.0850                 1.0677                 1.0797
 Frc consts  --      5.7515                 5.7074                 5.8329
 IR Inten    --     57.6925                17.4422                81.5368

                     76                     77                     78
                      A                      A                      A
 Frequencies --   3074.1915              3078.4713              3415.8662
 Red. masses --      1.0904                 1.1026                 1.0678
 Frc consts  --      6.0716                 6.1563                 7.3410
 IR Inten    --     46.1190                51.4489               500.5618

                     79                     80                     81
                      A                      A                      A
 Frequencies --   3558.9494              3606.9710              3640.2961
 Red. masses --      1.0581                 1.0652                 1.0642
 Frc consts  --      7.8965                 8.1652                 8.3091
 IR Inten    --    689.7134               196.4611                70.1330

                     82                     83                     84
                      A                      A                      A
 Frequencies --   3764.8144              3765.7949              3793.9691
 Red. masses --      1.0652                 1.0667                 1.0704
 Frc consts  --      8.8955                 8.9127                 9.0777
 IR Inten    --     28.0143                34.2632                74.6321

 - Thermochemistry -
 -------------------
 Temperature   298.150 Kelvin.  Pressure   1.00000 Atm.
 Atom     1 has atomic number  6 and mass  12.00000

 Molecular mass:   216.08452 amu.
 Principal axes and moments of inertia in atomic units:
                           1         2         3
     Eigenvalues --  2652.233793350.167835481.85438
           X            0.99943   0.03347   0.00496
           Y           -0.03348   0.99944   0.00249
           Z           -0.00488  -0.00266   0.99998
 This molecule is an asymmetric top.
 Rotational symmetry number  1.
 Warning -- assumption of classical behavior for rotation
           may cause significant error
 Rotational temperatures (Kelvin)      0.03266     0.02585     0.01580
 Rotational constants (GHZ):           0.68046     0.53870     0.32922
    1 imaginary frequencies ignored.
 Zero-point vibrational energy     634564.6 (Joules/Mol)
                                  151.66457 (Kcal/Mol)
 Warning -- explicit consideration of  29 degrees of freedom as
           vibrations may cause significant error
 Vibrational temperatures:     51.92    78.03   114.39   136.35   170.95
          (Kelvin)            222.27   246.51   274.91   295.59   378.32
                              388.59   402.93   425.17   434.93   475.58
                              506.34   552.65   561.89   573.26   617.63
                              649.65   719.28   757.61   772.52   793.76
                              800.08   824.88   850.46   876.60   920.25
                              940.94   982.69  1012.61  1293.46  1319.46
                             1447.28  1490.92  1517.12  1528.25  1556.39
                             1597.07  1600.02  1608.04  1629.16  1660.65
                             1673.44  1765.39  1802.88  1813.44  1817.73
                             1873.06  1897.37  1939.79  1941.66  1978.18
                             2000.71  2006.43  2019.09  2057.85  2074.25
                             2094.56  2140.99  2191.58  2204.03  2228.37
                             2283.17  2369.79  2483.94  2755.73  4265.56
                             4290.28  4315.63  4333.81  4356.69  4423.07
                             4429.23  4914.66  5120.53  5189.62  5237.57
                             5416.72  5418.13  5458.67

 Zero-point correction=                           0.241693 (Hartree/Particle)
 Thermal correction to Energy=                    0.257824
 Thermal correction to Enthalpy=                  0.258768
 Thermal correction to Gibbs Free Energy=         0.198872
 Sum of electronic and zero-point Energies=           -839.716157
 Sum of electronic and thermal Energies=              -839.700026
 Sum of electronic and thermal Enthalpies=            -839.699082
 Sum of electronic and thermal Free Energies=         -839.758978

                     E (Thermal)             CV                S
                      KCal/Mol        Cal/Mol-Kelvin    Cal/Mol-Kelvin
 Total                  161.787             61.275            126.061
 Electronic               0.000              0.000              0.000
 Translational            0.889              2.981             42.015
 Rotational               0.889              2.981             32.255
 Vibrational            160.009             55.313             51.791
 Vibration     1          0.594              1.982              5.463
 Vibration     2          0.596              1.976              4.657
 Vibration     3          0.600              1.963              3.903
 Vibration     4          0.603              1.953              3.559
 Vibration     5          0.609              1.934              3.120
 Vibration     6          0.620              1.898              2.616
 Vibration     7          0.626              1.878              2.421
 Vibration     8          0.634              1.852              2.217
 Vibration     9          0.640              1.832              2.084
 Vibration    10          0.670              1.741              1.642
 Vibration    11          0.674              1.728              1.596
 Vibration    12          0.680              1.710              1.533
 Vibration    13          0.690              1.682              1.442
 Vibration    14          0.694              1.669              1.404
 Vibration    15          0.713              1.614              1.257
 Vibration    16          0.728              1.571              1.158
 Vibration    17          0.753              1.504              1.023
 Vibration    18          0.758              1.490              0.998
 Vibration    19          0.765              1.473              0.968
 Vibration    20          0.791              1.407              0.861
 Vibration    21          0.810              1.358              0.791
 Vibration    22          0.855              1.250              0.658
 Vibration    23          0.882              1.191              0.595
 Vibration    24          0.892              1.168              0.572
 Vibration    25          0.907              1.136              0.541
 Vibration    26          0.912              1.126              0.532
 Vibration    27          0.930              1.089              0.498
 Vibration    28          0.949              1.051              0.465
 Vibration    29          0.968              1.012              0.434

 Optimization completed.
    -- Stationary point found.
 Normal termination of Gaussian 09 at Sun Jun  5 00:35:24 2016.

 --------------------------------------------------------------
 #N Geom=AllCheck Guess=TCheck SCRF=Check QCISD(T,FrzG3)/GTBas1
 --------------------------------------------------------------

 Structure from the checkpoint file:  "/home/iawad/scratch/MAIN/PRO_Halides/direct/TsF/glo_1w_Beta/glo_1w_Beta_G3MP2B3_00.chk"
 ----------------------
 glo_1w_Beta_G3MP2B3_00
 ----------------------
 Charge =  0 Multiplicity = 1

 SCF Done:  E(RHF) =  -835.279063741     A.U. after   13 cycles
 E2 =    -0.2272311105D+01 EUMP2 =    -0.83755137484659D+03
 Normal termination of Gaussian 09 at Mon Jun  6 08:22:32 2016.

 -------------------------------------------------------------
 #N Geom=AllCheck Guess=TCheck SCRF=Check MP2=FrzG3/GTMP2Large
 -------------------------------------------------------------

 Structure from the checkpoint file:  "/home/iawad/scratch/MAIN/PRO_Halides/direct/TsF/glo_1w_Beta/glo_1w_Beta_G3MP2B3_00.chk"
 ----------------------
 glo_1w_Beta_G3MP2B3_00
 ----------------------
 Charge =  0 Multiplicity = 1

                         Standard orientation:
 ---------------------------------------------------------------------
 Center     Atomic      Atomic             Coordinates (Angstroms)
 Number     Number       Type             X           Y           Z
 ---------------------------------------------------------------------
      1          6           0        1.867399   -0.740509   -0.838531
      2          8           0        1.342396    1.001125   -0.510756
      3          1           0        2.727073    0.529255    2.046765
      4          8           0        3.116890   -0.710651   -0.583855
      5          1           0        3.254573   -0.010616    0.479617
      6          8           0        3.008321    0.887830    1.188992
      7          1           0        2.059080    1.124726    0.492370
      8          6           0        0.909738   -1.456420    0.113209
      9          6           0       -0.569012   -1.081009   -0.070787
     10          6           0       -0.865917    0.365024    0.339075
     11          6           0       -0.030121    1.342204   -0.509890
     12          6           0       -0.142411    2.799053   -0.047949
     13          8           0       -1.517370    3.198604   -0.143747
     14          8           0        1.071621   -2.837179   -0.146032
     15          8           0       -1.285996   -2.020541    0.715004
     16          8           0       -2.263153    0.613251    0.153232
     17          1           0        1.576758   -0.803101   -1.895334
     18          1           0        1.209665   -1.219058    1.149324
     19          1           0        0.248657   -3.236173    0.197859
     20          1           0       -2.211926   -2.063160    0.373795
     21          1           0       -2.381000    1.584159    0.144443
     22          1           0       -0.608253    0.483847    1.405357
     23          1           0       -0.405627    1.283760   -1.542605
     24          1           0        0.494616    3.424097   -0.686160
     25          1           0        0.216678    2.883314    0.989144
     26          1           0       -1.617931    4.075894    0.254706
     27          8           0       -3.828689   -1.615345   -0.236308
     28          1           0       -4.408497   -1.675510    0.538537
     29          1           0       -0.831482   -1.196031   -1.135703
     30          1           0       -3.492605   -0.692199   -0.215123
 ---------------------------------------------------------------------

 SCF Done:  E(RHF) =  -835.626200815     A.U. after   13 cycles
 E2 =    -0.2983935544D+01 EUMP2 =    -0.83861013635945D+03

 The electronic state is 1-A.
 Alpha  occ. eigenvalues --  -20.60376 -20.58253 -20.58019 -20.57008 -20.56561
 Alpha  occ. eigenvalues --  -20.56234 -20.56166 -20.53424 -11.36594 -11.30838
 Alpha  occ. eigenvalues --  -11.30460 -11.30345 -11.29967 -11.29839  -1.41546
 Alpha  occ. eigenvalues --   -1.40519  -1.39291  -1.37862  -1.35733  -1.35072
 Alpha  occ. eigenvalues --   -1.34291  -1.34139  -1.06643  -1.03302  -0.95255
 Alpha  occ. eigenvalues --   -0.87673  -0.84071  -0.81998  -0.76693  -0.75772
 Alpha  occ. eigenvalues --   -0.72595  -0.71847  -0.71259  -0.70551  -0.68877
 Alpha  occ. eigenvalues --   -0.66354  -0.65718  -0.64210  -0.63967  -0.62981
 Alpha  occ. eigenvalues --   -0.61300  -0.60113  -0.59235  -0.58644  -0.57762
 Alpha  occ. eigenvalues --   -0.55416  -0.54757  -0.54453  -0.52985  -0.51342
 Alpha  occ. eigenvalues --   -0.50558  -0.49243  -0.48638  -0.45701  -0.44793
 Alpha  occ. eigenvalues --   -0.44441  -0.43391  -0.42085
 Alpha virt. eigenvalues --    0.02579   0.04105   0.04604   0.05226   0.06521
 Alpha virt. eigenvalues --    0.06866   0.07001   0.07716   0.08472   0.09061
 Alpha virt. eigenvalues --    0.10067   0.10247   0.10973   0.12140   0.12681

 Mulliken charges:
               1
     1  C   -0.127133
     2  O   -0.448351
     3  H    0.244690
     4  O   -0.491724
     5  H    0.424055
     6  O   -0.619283
     7  H    0.538217
     8  C    0.163970
     9  C    0.207221
    10  C   -0.014427
    11  C   -0.232612
    12  C    0.023292
    13  O   -0.438876
    14  O   -0.443441
    15  O   -0.588510
    16  O   -0.558410
    17  H    0.150072
    18  H    0.120644
    19  H    0.301972
    20  H    0.449003
    21  H    0.361838
    22  H    0.151977
    23  H    0.147551
    24  H    0.100165
    25  H    0.091331
    26  H    0.291835
    27  O   -0.636629
    28  H    0.274534
    29  H    0.167390
    30  H    0.389640
 Sum of Mulliken charges =   0.00000

 Dipole moment (field-independent basis, Debye):
    X=             -3.9765    Y=              4.9492    Z=              3.0685  Tot=              7.0515
 Quadrupole moment (field-independent basis, Debye-Ang):
   XX=            -99.9666   YY=            -79.9108   ZZ=            -80.7453
   XY=             -1.2116   XZ=             -0.4888   YZ=              1.1048

    1 imaginary frequencies ignored.
 Normal termination of Gaussian 09 at Mon Jun  6 13:42:32 2016.
