 Gaussian 09, Revision E.01,
 Gaussian 09:  ES64L-G09RevE.01 30-Nov-2015

 ----------------------------------------------------------------------
 # opt=(TS,CalcFC,NoEigenTest,MaxCycle=500,cartesian) Freq B3LYP 6-31G(
 d)
 ----------------------------------------------------------------------

 --------------------------
 glo_1w_ALPHA_B3LYP_6-31G_d
 --------------------------
 Symbolic Z-matrix:
 Charge =  0 Multiplicity = 1

 SCF Done:  E(RB3LYP) =  -839.928893775     A.U. after   14 cycles
 SCF Done:  E(RB3LYP) =  -839.939513677     A.U. after   12 cycles
 SCF Done:  E(RB3LYP) =  -839.946914094     A.U. after   11 cycles
 SCF Done:  E(RB3LYP) =  -839.951853608     A.U. after   12 cycles
 SCF Done:  E(RB3LYP) =  -839.955011530     A.U. after   11 cycles
 SCF Done:  E(RB3LYP) =  -839.956873830     A.U. after   11 cycles
 SCF Done:  E(RB3LYP) =  -839.957996257     A.U. after   11 cycles
 SCF Done:  E(RB3LYP) =  -839.958598374     A.U. after   11 cycles
 SCF Done:  E(RB3LYP) =  -839.959153745     A.U. after   11 cycles
 SCF Done:  E(RB3LYP) =  -839.959432914     A.U. after   11 cycles
 SCF Done:  E(RB3LYP) =  -839.960249183     A.U. after   11 cycles
 SCF Done:  E(RB3LYP) =  -839.960233567     A.U. after   11 cycles
 SCF Done:  E(RB3LYP) =  -839.960193488     A.U. after   11 cycles
 SCF Done:  E(RB3LYP) =  -839.960260653     A.U. after   11 cycles
 SCF Done:  E(RB3LYP) =  -839.960218615     A.U. after   11 cycles
 SCF Done:  E(RB3LYP) =  -839.960267623     A.U. after   11 cycles
 SCF Done:  E(RB3LYP) =  -839.960268193     A.U. after   10 cycles
 SCF Done:  E(RB3LYP) =  -839.960269431     A.U. after    8 cycles
 SCF Done:  E(RB3LYP) =  -839.960269526     A.U. after    7 cycles
 Optimization completed.
    -- Stationary point found.
 Normal termination of Gaussian 09 at Sat Jan  7 22:00:30 2017.

 --------------------------------------------------------------------
 #N Geom=AllCheck Guess=TCheck SCRF=Check GenChk RB3LYP/6-31G(d) Freq
 --------------------------------------------------------------------

 Structure from the checkpoint file:  "/scratch/10446899.yak.local/Gau-920.chk"
 --------------------------
 glo_1w_ALPHA_B3LYP_6-31G_d
 --------------------------
 Charge =  0 Multiplicity = 1

                         Standard orientation:
 ---------------------------------------------------------------------
 Center     Atomic      Atomic             Coordinates (Angstroms)
 Number     Number       Type             X           Y           Z
 ---------------------------------------------------------------------
      1          6           0       -1.490768   -1.327205   -0.370502
      2          8           0       -1.178156    0.281858   -0.824093
      3          1           0       -3.998446    0.565297   -1.498982
      4          8           0       -3.530820    0.658120   -0.652315
      5          1           0       -2.320033    0.676470   -0.837091
      6          6           0        1.053725    0.349273   -0.077148
      7          6           0       -0.321181    1.011588    0.074545
      8          1           0        1.391271    0.531447   -1.101266
      9          1           0       -0.683108    0.921954    1.104705
     10          8           0        2.046081    0.999800    0.755445
     11          1           0        1.848028    0.766128    1.679359
     12          6           0       -0.321745    2.492276   -0.330575
     13          8           0        0.392068    3.291000    0.593622
     14          1           0       -1.352689    2.862661   -0.335624
     15          1           0        0.071940    2.586483   -1.357000
     16          1           0        1.276123    2.891267    0.673160
     17          1           0       -1.447161   -1.723341   -1.393648
     18          8           0       -2.634754   -1.360123    0.263230
     19          1           0       -3.376588   -0.370945   -0.206541
     20          8           0        4.003439   -0.587600   -0.616022
     21          1           0        4.415775   -0.074387   -1.327000
     22          1           0        3.592693    0.078526   -0.028418
     23          6           0        1.053806   -1.194617    0.130275
     24          1           0        1.705138   -1.403218    0.994949
     25          6           0       -0.314790   -1.764836    0.510346
     26          1           0       -0.247108   -2.859944    0.407588
     27          8           0       -0.581816   -1.392255    1.850375
     28          1           0       -1.562686   -1.372865    1.889137
     29          8           0        1.517592   -1.872206   -1.018268
     30          1           0        2.463486   -1.623160   -1.100769
 ---------------------------------------------------------------------

 SCF Done:  E(RB3LYP) =  -839.960269526     A.U. after    1 cycles

 The electronic state is 1-A.
 Alpha  occ. eigenvalues --  -19.19730 -19.18757 -19.17819 -19.16250 -19.14247
 Alpha  occ. eigenvalues --  -19.14188 -19.13436 -19.12255 -10.29262 -10.25601
 Alpha  occ. eigenvalues --  -10.25181 -10.24424 -10.23902 -10.23899  -1.07546
 Alpha  occ. eigenvalues --   -1.06149  -1.02975  -1.02235  -1.01983  -1.01324
 Alpha  occ. eigenvalues --   -1.00980  -0.98850  -0.78259  -0.75596  -0.69358
 Alpha  occ. eigenvalues --   -0.65108  -0.62922  -0.57962  -0.56859  -0.54573
 Alpha  occ. eigenvalues --   -0.53737  -0.53557  -0.52252  -0.51294  -0.49090
 Alpha  occ. eigenvalues --   -0.48394  -0.47138  -0.44867  -0.44468  -0.42984
 Alpha  occ. eigenvalues --   -0.42141  -0.41464  -0.40226  -0.39570  -0.38865
 Alpha  occ. eigenvalues --   -0.37574  -0.35978  -0.35791  -0.34989  -0.33844
 Alpha  occ. eigenvalues --   -0.32321  -0.30983  -0.30163  -0.28770  -0.27861
 Alpha  occ. eigenvalues --   -0.26353  -0.26096  -0.25234
 Alpha virt. eigenvalues --    0.03316   0.04504   0.05704   0.06322   0.09398
 Alpha virt. eigenvalues --    0.09719   0.11170   0.12219   0.13124   0.14237
 Alpha virt. eigenvalues --    0.15813   0.16745   0.17570   0.18245   0.18938

 Mulliken charges:
               1
     1  C    0.326644
     2  O   -0.647770
     3  H    0.410038
     4  O   -0.817400
     5  H    0.475886
     6  C    0.083404
     7  C    0.094969
     8  H    0.158251
     9  H    0.161017
    10  O   -0.658735
    11  H    0.418342
    12  C   -0.043075
    13  O   -0.632310
    14  H    0.158175
    15  H    0.122479
    16  H    0.406841
    17  H    0.145046
    18  O   -0.658009
    19  H    0.465664
    20  O   -0.805852
    21  H    0.399374
    22  H    0.426436
    23  C    0.122304
    24  H    0.132054
    25  C    0.088133
    26  H    0.155751
    27  O   -0.664446
    28  H    0.416028
    29  O   -0.668713
    30  H    0.429476
 Sum of Mulliken charges =  -0.00000

 Dipole moment (field-independent basis, Debye):
    X=              0.7954    Y=              1.3300    Z=             -2.4000  Tot=              2.8568
 Quadrupole moment (field-independent basis, Debye-Ang):
   XX=            -74.4558   YY=            -98.4672   ZZ=            -79.4596
   XY=              5.2725   XZ=              5.7410   YZ=             -3.1296

  Exact polarizability: 111.045   0.177  98.386   1.380  -0.340  83.859
 Approx polarizability: 143.401   2.051 131.717  -1.088   1.632 131.197

 ******    1 imaginary frequencies (negative Signs) ******

                      1                      2                      3
                      A                      A                      A
 Frequencies --  -1315.3959                32.3881                53.2593
 Red. masses --      1.1598                 5.7100                 5.5188
 Frc consts  --      1.1823                 0.0035                 0.0092
 IR Inten    --    266.4501                 4.3779                 0.1948

                      4                      5                      6
                      A                      A                      A
 Frequencies --     71.6781                88.3317               110.6014
 Red. masses --      6.1877                 6.6191                 6.4531
 Frc consts  --      0.0187                 0.0304                 0.0465
 IR Inten    --      4.8950                 4.6637                 6.4915

                      7                      8                      9
                      A                      A                      A
 Frequencies --    147.5250               167.8747               176.4865
 Red. masses --      5.9930                 3.3855                 4.9710
 Frc consts  --      0.0768                 0.0562                 0.0912
 IR Inten    --      2.4233                 0.9935                 9.9236

                     10                     11                     12
                      A                      A                      A
 Frequencies --    204.6869               224.5849               253.5097
 Red. masses --      4.6715                 4.6226                 1.2199
 Frc consts  --      0.1153                 0.1374                 0.0462
 IR Inten    --      7.4150                 2.3044               154.3974

                     13                     14                     15
                      A                      A                      A
 Frequencies --    272.2280               311.2990               325.8851
 Red. masses --      3.9544                 5.4624                 2.5451
 Frc consts  --      0.1727                 0.3119                 0.1593
 IR Inten    --      8.5410                 3.7522                62.7867

                     16                     17                     18
                      A                      A                      A
 Frequencies --    346.8859               353.6738               367.7873
 Red. masses --      2.1402                 4.6874                 2.5496
 Frc consts  --      0.1517                 0.3455                 0.2032
 IR Inten    --     43.2370                 5.8241                47.2586

                     19                     20                     21
                      A                      A                      A
 Frequencies --    412.9517               426.9038               460.4456
 Red. masses --      2.7008                 4.9065                 1.7114
 Frc consts  --      0.2714                 0.5268                 0.2138
 IR Inten    --      3.2330                14.0948                95.8992

                     22                     23                     24
                      A                      A                      A
 Frequencies --    494.2985               515.9361               533.4626
 Red. masses --      4.3287                 2.8275                 3.1301
 Frc consts  --      0.6231                 0.4434                 0.5248
 IR Inten    --      2.1076                65.9931                47.4541

                     25                     26                     27
                      A                      A                      A
 Frequencies --    546.3041               561.7328               584.9646
 Red. masses --      1.6918                 2.4019                 2.5410
 Frc consts  --      0.2975                 0.4465                 0.5123
 IR Inten    --     22.3620                95.4607               149.1679

                     28                     29                     30
                      A                      A                      A
 Frequencies --    609.9224               635.9539               655.1931
 Red. masses --      1.1142                 1.2175                 1.3742
 Frc consts  --      0.2442                 0.2901                 0.3476
 IR Inten    --     73.0497                34.1973               224.4845

                     31                     32                     33
                      A                      A                      A
 Frequencies --    676.6152               706.2020               727.3750
 Red. masses --      1.0571                 3.4110                 4.9721
 Frc consts  --      0.2851                 1.0023                 1.5499
 IR Inten    --    135.6758                 3.3269               135.5450

                     34                     35                     36
                      A                      A                      A
 Frequencies --    745.4598               841.1284               858.4016
 Red. masses --      1.2953                 4.1248                 3.1609
 Frc consts  --      0.4241                 1.7194                 1.3723
 IR Inten    --    282.8417                11.3408                27.0985

                     37                     38                     39
                      A                      A                      A
 Frequencies --    913.2880               995.3617              1028.9231
 Red. masses --      2.1887                 2.1513                 4.4545
 Frc consts  --      1.0756                 1.2558                 2.7785
 IR Inten    --     43.6810                14.5025                21.9939

                     40                     41                     42
                      A                      A                      A
 Frequencies --   1036.1994              1091.9161              1099.3049
 Red. masses --      5.2220                 3.7099                 3.1245
 Frc consts  --      3.3035                 2.6061                 2.2247
 IR Inten    --    283.5962                45.8072                85.9804

                     43                     44                     45
                      A                      A                      A
 Frequencies --   1101.3424              1122.2539              1137.7354
 Red. masses --      2.7368                 3.1307                 3.7408
 Frc consts  --      1.9559                 2.3232                 2.8530
 IR Inten    --     41.8673                46.4122               105.7184

                     46                     47                     48
                      A                      A                      A
 Frequencies --   1155.3164              1209.0923              1236.8290
 Red. masses --      2.9132                 1.1312                 1.2306
 Frc consts  --      2.2910                 0.9743                 1.1091
 IR Inten    --     34.9696                19.8870               481.9799

                     49                     50                     51
                      A                      A                      A
 Frequencies --   1249.3826              1287.1638              1299.4281
 Red. masses --      1.3086                 1.2083                 1.5846
 Frc consts  --      1.2035                 1.1795                 1.5764
 IR Inten    --     18.9133               302.1192              1276.6401

                     52                     53                     54
                      A                      A                      A
 Frequencies --   1307.3654              1310.2063              1331.3767
 Red. masses --      1.1474                 1.1579                 1.2471
 Frc consts  --      1.1555                 1.1711                 1.3024
 IR Inten    --     52.6197                13.8331                 1.5139

                     55                     56                     57
                      A                      A                      A
 Frequencies --   1360.3877              1380.9815              1397.9120
 Red. masses --      1.2649                 1.3509                 1.3135
 Frc consts  --      1.3792                 1.5179                 1.5124
 IR Inten    --    243.7564                23.0355                30.0469

                     58                     59                     60
                      A                      A                      A
 Frequencies --   1406.2677              1419.3297              1436.0184
 Red. masses --      1.2736                 1.2705                 1.3760
 Frc consts  --      1.4840                 1.5080                 1.6719
 IR Inten    --      9.1433                24.9502               337.8039

                     61                     62                     63
                      A                      A                      A
 Frequencies --   1439.5323              1473.3522              1477.6903
 Red. masses --      1.4842                 1.2453                 1.6425
 Frc consts  --      1.8122                 1.5927                 2.1131
 IR Inten    --    163.1562                48.5608               186.2453

                     64                     65                     66
                      A                      A                      A
 Frequencies --   1512.5405              1540.0450              1566.7509
 Red. masses --      1.4566                 1.0882                 1.0693
 Frc consts  --      1.9634                 1.5207                 1.5464
 IR Inten    --     23.9639                 5.8815               393.4399

                     67                     68                     69
                      A                      A                      A
 Frequencies --   1589.0619              1649.1926              1722.3230
 Red. masses --      1.0966                 1.2399                 1.0773
 Frc consts  --      1.6315                 1.9869                 1.8828
 IR Inten    --    111.5418              1205.5413                65.8228

                     70                     71                     72
                      A                      A                      A
 Frequencies --   1980.2113              2986.6937              2986.7855
 Red. masses --      1.0244                 1.0742                 1.0801
 Frc consts  --      2.3667                 5.6456                 5.6772
 IR Inten    --    489.2470                87.0221                10.7388

                     73                     74                     75
                      A                      A                      A
 Frequencies --   3006.0646              3055.5629              3082.3009
 Red. masses --      1.0837                 1.0888                 1.0837
 Frc consts  --      5.7699                 5.9893                 6.0659
 IR Inten    --     33.2039                59.2869                 7.6332

                     76                     77                     78
                      A                      A                      A
 Frequencies --   3097.0088              3106.9855              3549.3910
 Red. masses --      1.0929                 1.0878                 1.0647
 Frc consts  --      6.1764                 6.1871                 7.9030
 IR Inten    --     27.9101                28.6019               223.5792

                     79                     80                     81
                      A                      A                      A
 Frequencies --   3559.8170              3612.2336              3686.1287
 Red. masses --      1.0639                 1.0558                 1.0656
 Frc consts  --      7.9432                 8.1170                 8.5307
 IR Inten    --     85.9589               338.7532                81.9296

                     82                     83                     84
                      A                      A                      A
 Frequencies --   3710.1596              3763.1048              3806.8075
 Red. masses --      1.0659                 1.0651                 1.0732
 Frc consts  --      8.6446                 8.8866                 9.1636
 IR Inten    --     30.0058                47.4438                76.1390

 - Thermochemistry -
 -------------------
 Temperature   298.150 Kelvin.  Pressure   1.00000 Atm.
 Atom     1 has atomic number  6 and mass  12.00000

 Molecular mass:   216.08452 amu.
 Principal axes and moments of inertia in atomic units:
                           1         2         3
     Eigenvalues --  2375.296773514.526684905.80195
           X            0.99997  -0.00653   0.00370
           Y            0.00656   0.99995  -0.00774
           Z           -0.00365   0.00777   0.99996
 This molecule is an asymmetric top.
 Rotational symmetry number  1.
 Warning -- assumption of classical behavior for rotation
           may cause significant error
 Rotational temperatures (Kelvin)      0.03646     0.02464     0.01766
 Rotational constants (GHZ):           0.75980     0.51351     0.36788
    1 imaginary frequencies ignored.
 Zero-point vibrational energy     638656.7 (Joules/Mol)
                                  152.64261 (Kcal/Mol)
 Warning -- explicit consideration of  27 degrees of freedom as
           vibrations may cause significant error
 Vibrational temperatures:     46.60    76.63   103.13   127.09   159.13
          (Kelvin)            212.26   241.53   253.92   294.50   323.13
                              364.74   391.67   447.89   468.88   499.09
                              508.86   529.16   594.14   614.22   662.48
                              711.18   742.32   767.53   786.01   808.21
                              841.63   877.54   914.99   942.68   973.50
                             1016.07  1046.53  1072.55  1210.19  1235.05
                             1314.02  1432.10  1480.39  1490.86  1571.02
                             1581.65  1584.58  1614.67  1636.95  1662.24
                             1739.61  1779.52  1797.58  1851.94  1869.58
                             1881.00  1885.09  1915.55  1957.29  1986.92
                             2011.28  2023.30  2042.10  2066.11  2071.16
                             2119.82  2126.06  2176.21  2215.78  2254.20
                             2286.30  2372.82  2478.04  2849.08  4297.18
                             4297.31  4325.05  4396.27  4434.74  4455.90
                             4470.25  5106.78  5121.78  5197.19  5303.51
                             5338.09  5414.26  5477.14

 Zero-point correction=                           0.243251 (Hartree/Particle)
 Thermal correction to Energy=                    0.259263
 Thermal correction to Enthalpy=                  0.260208
 Thermal correction to Gibbs Free Energy=         0.200217
 Sum of electronic and zero-point Energies=           -839.717018
 Sum of electronic and thermal Energies=              -839.701006
 Sum of electronic and thermal Enthalpies=            -839.700062
 Sum of electronic and thermal Free Energies=         -839.760052

                     E (Thermal)             CV                S
                      KCal/Mol        Cal/Mol-Kelvin    Cal/Mol-Kelvin
 Total                  162.690             60.600            126.260
 Electronic               0.000              0.000              0.000
 Translational            0.889              2.981             42.015
 Rotational               0.889              2.981             32.082
 Vibrational            160.913             54.638             52.163
 Vibration     1          0.594              1.983              5.678
 Vibration     2          0.596              1.976              4.693
 Vibration     3          0.598              1.968              4.107
 Vibration     4          0.601              1.957              3.697
 Vibration     5          0.606              1.941              3.258
 Vibration     6          0.617              1.905              2.704
 Vibration     7          0.625              1.882              2.459
 Vibration     8          0.628              1.871              2.365
 Vibration     9          0.640              1.833              2.091
 Vibration    10          0.649              1.804              1.922
 Vibration    11          0.665              1.757              1.706
 Vibration    12          0.675              1.724              1.582
 Vibration    13          0.700              1.652              1.355
 Vibration    14          0.710              1.624              1.280
 Vibration    15          0.725              1.582              1.180
 Vibration    16          0.730              1.568              1.150
 Vibration    17          0.740              1.538              1.089
 Vibration    18          0.777              1.442              0.916
 Vibration    19          0.789              1.412              0.869
 Vibration    20          0.818              1.338              0.765
 Vibration    21          0.850              1.263              0.673
 Vibration    22          0.871              1.215              0.619
 Vibration    23          0.888              1.176              0.580
 Vibration    24          0.901              1.148              0.552
 Vibration    25          0.917              1.114              0.520
 Vibration    26          0.942              1.064              0.476
 Vibration    27          0.969              1.011              0.433

 Normal termination of Gaussian 09 at Sat Jan  7 22:32:37 2017.
