 Gaussian 09, Revision E.01,
 Gaussian 09:  ES64L-G09RevE.01 30-Nov-2015

 -------------------------------------
 # b3lyp/6-31g(d) irc=(calcfc,forward)
 -------------------------------------

 --------------------------------
 glo_1w_beta_ts_boat6_B3LYP_631Gd
 --------------------------------
 Symbolic Z-matrix:
 Charge =  0 Multiplicity = 1

 SCF Done:  E(RB3LYP) =  -839.956885607     A.U. after   14 cycles
 SCF Done:  E(RB3LYP) =  -839.957198023     A.U. after   11 cycles
 SCF Done:  E(RB3LYP) =  -839.957935395     A.U. after   12 cycles
 SCF Done:  E(RB3LYP) =  -839.958818430     A.U. after   11 cycles
 SCF Done:  E(RB3LYP) =  -839.958832398     A.U. after    9 cycles
 SCF Done:  E(RB3LYP) =  -839.959692698     A.U. after   11 cycles
 SCF Done:  E(RB3LYP) =  -839.960558521     A.U. after   11 cycles
 SCF Done:  E(RB3LYP) =  -839.961393749     A.U. after   11 cycles
 SCF Done:  E(RB3LYP) =  -839.962214234     A.U. after   11 cycles
 SCF Done:  E(RB3LYP) =  -839.963015524     A.U. after   11 cycles
 SCF Done:  E(RB3LYP) =  -839.963799023     A.U. after   11 cycles
 SCF Done:  E(RB3LYP) =  -839.964560644     A.U. after   11 cycles

                          Input orientation:
 ---------------------------------------------------------------------
 Center     Atomic      Atomic             Coordinates (Angstroms)
 Number     Number       Type             X           Y           Z
 ---------------------------------------------------------------------
      1          6           0        0.875886    0.771256   -0.558507
      2          6           0       -1.426305   -0.381204   -0.554515
      3          6           0       -0.573737    0.820700   -0.054388
      4          6           0       -0.586554   -1.585984   -1.032489
      5          1           0       -1.243129   -2.469538   -1.021504
      6          1           0       -2.042519   -0.022481   -1.387212
      7          1           0        0.902794    0.768960   -1.648590
      8          1           0       -0.540956    0.743199    1.044211
      9          6           0        0.487379   -1.866895    0.004078
     10          1           0        1.280879   -2.553581   -0.326034
     11          8           0        1.504408   -0.470287   -0.159013
     12          6           0        1.702615    1.931066   -0.033972
     13          1           0        1.230172    2.855670   -0.386774
     14          1           0        1.666766    1.938916    1.070213
     15          8           0        3.031559    1.777345   -0.508549
     16          1           0        3.524309    2.576706   -0.270248
     17          8           0        0.051155   -1.930702    1.209833
     18          8           0       -0.003141   -1.401637   -2.311847
     19          1           0       -0.721273   -1.375604   -2.962903
     20          8           0       -2.326647   -0.825196    0.470158
     21          1           0       -1.726165   -1.284596    1.104824
     22          8           0       -1.119831    2.061494   -0.452088
     23          1           0       -1.970993    2.150888    0.039089
     24          8           0        2.052569   -0.861931    2.223142
     25          1           0        1.242614   -1.452534    2.117668
     26          1           0        1.806051   -0.179920    2.865948
     27          1           0        1.895482   -0.422805    0.792473
     28          8           0       -3.415308    1.651718    1.038687
     29          1           0       -4.241896    1.727450    0.538832
     30          1           0       -3.192325    0.691568    1.008895
 ---------------------------------------------------------------------

 Alpha  occ. eigenvalues --  -19.19188 -19.16337 -19.15663 -19.15641 -19.15048
 Alpha  occ. eigenvalues --  -19.14802 -19.13137 -19.11314 -10.28808 -10.24745
 Alpha  occ. eigenvalues --  -10.24674 -10.24413 -10.24044 -10.23993  -1.07653
 Alpha  occ. eigenvalues --   -1.04097  -1.03025  -1.02504  -1.01376  -1.00947
 Alpha  occ. eigenvalues --   -1.00041  -0.99354  -0.78271  -0.75878  -0.69351
 Alpha  occ. eigenvalues --   -0.64642  -0.62294  -0.58281  -0.55272  -0.54193
 Alpha  occ. eigenvalues --   -0.53281  -0.52346  -0.52204  -0.51206  -0.48865
 Alpha  occ. eigenvalues --   -0.46994  -0.46744  -0.46112  -0.43486  -0.42042
 Alpha  occ. eigenvalues --   -0.41481  -0.40782  -0.39930  -0.39471  -0.38381
 Alpha  occ. eigenvalues --   -0.37132  -0.36457  -0.35011  -0.34348  -0.33118
 Alpha  occ. eigenvalues --   -0.30906  -0.30653  -0.29501  -0.29064  -0.27467
 Alpha  occ. eigenvalues --   -0.26797  -0.24899  -0.24706
 Alpha virt. eigenvalues --    0.03313   0.05235   0.06053   0.06711   0.07846
 Alpha virt. eigenvalues --    0.10009   0.12888   0.13090   0.13677   0.14677
 Alpha virt. eigenvalues --    0.15323   0.16638   0.17121   0.17816   0.19408

 Mulliken charges:
               1
     1  C    0.117667
     2  C    0.082310
     3  C    0.125726
     4  C    0.051439
     5  H    0.155607
     6  H    0.136221
     7  H    0.186265
     8  H    0.111228
     9  C    0.340830
    10  H    0.147332
    11  O   -0.619431
    12  C   -0.063221
    13  H    0.170442
    14  H    0.105614
    15  O   -0.611847
    16  H    0.398251
    17  O   -0.634630
    18  O   -0.616000
    19  H    0.400801
    20  O   -0.672200
    21  H    0.427479
    22  O   -0.682664
    23  H    0.428982
    24  O   -0.817936
    25  H    0.444271
    26  H    0.399995
    27  H    0.475814
    28  O   -0.815332
    29  H    0.394686
    30  H    0.432300
 Sum of Mulliken charges =  -0.00000

 Dipole moment (field-independent basis, Debye):
    X=             -1.6437    Y=              1.4280    Z=             -0.4325  Tot=              2.2199
 Quadrupole moment (field-independent basis, Debye-Ang):
   XX=            -79.9445   YY=            -83.2636   ZZ=            -79.1679
   XY=              9.3706   XZ=              9.5449   YZ=              5.3155

  Exact polarizability:   0.000   0.000   0.000   0.000   0.000   0.000
 Approx polarizability: 134.925   2.545 130.415  -4.072  -4.809 135.993

 Normal termination of Gaussian 09 at Sat Jan 14 01:06:39 2017.
