 Gaussian 09, Revision E.01,
 Gaussian 09:  ES64L-G09RevE.01 30-Nov-2015

 -------------------------------------
 # b3lyp/6-31g(d) irc=(calcfc,forward)
 -------------------------------------

 ---------------------------------
 glo_2w_alpha_ts_boat6_B3LYP_631Gd
 ---------------------------------
 Symbolic Z-matrix:
 Charge =  0 Multiplicity = 1

 SCF Done:  E(RB3LYP) =  -839.982550016     A.U. after   14 cycles
 SCF Done:  E(RB3LYP) =  -839.982601890     A.U. after   11 cycles
 SCF Done:  E(RB3LYP) =  -839.982604374     A.U. after    9 cycles
 SCF Done:  E(RB3LYP) =  -839.982768445     A.U. after   11 cycles
 SCF Done:  E(RB3LYP) =  -839.982776781     A.U. after    9 cycles
 SCF Done:  E(RB3LYP) =  -839.983094166     A.U. after   11 cycles
 SCF Done:  E(RB3LYP) =  -839.983111628     A.U. after   10 cycles
 SCF Done:  E(RB3LYP) =  -839.983680611     A.U. after   12 cycles
 SCF Done:  E(RB3LYP) =  -839.983723151     A.U. after   11 cycles
 SCF Done:  E(RB3LYP) =  -839.983735561     A.U. after   10 cycles
 SCF Done:  E(RB3LYP) =  -839.984715778     A.U. after   12 cycles
 SCF Done:  E(RB3LYP) =  -839.984758108     A.U. after   10 cycles
 SCF Done:  E(RB3LYP) =  -839.985914321     A.U. after   12 cycles
 SCF Done:  E(RB3LYP) =  -839.985966257     A.U. after   11 cycles
 SCF Done:  E(RB3LYP) =  -839.987028229     A.U. after   12 cycles
 SCF Done:  E(RB3LYP) =  -839.987072759     A.U. after   11 cycles
 SCF Done:  E(RB3LYP) =  -839.988144031     A.U. after   11 cycles
 SCF Done:  E(RB3LYP) =  -839.989189991     A.U. after   11 cycles
 SCF Done:  E(RB3LYP) =  -839.990200183     A.U. after   11 cycles

                          Input orientation:
 ---------------------------------------------------------------------
 Center     Atomic      Atomic             Coordinates (Angstroms)
 Number     Number       Type             X           Y           Z
 ---------------------------------------------------------------------
      1          6           0       -0.111394    1.026114   -0.201547
      2          6           0       -2.167131   -0.243042    0.615938
      3          6           0       -1.659370    1.034239   -0.094260
      4          6           0       -1.457487   -1.495191    0.064889
      5          1           0       -1.912214   -2.388150    0.523274
      6          1           0       -3.235196   -0.328435    0.393589
      7          1           0        0.171990    0.587306   -1.165787
      8          1           0       -1.986801    1.884290    0.517148
      9          6           0        0.056398   -1.586784    0.355954
     10          8           0        0.394073    0.194562    0.854754
     11          6           0        0.460646    2.425917   -0.115449
     12          1           0       -0.135368    3.071624   -0.773231
     13          1           0        0.375402    2.792994    0.917456
     14          8           0        1.832472    2.420833   -0.545963
     15          1           0        2.154613    3.335071   -0.533700
     16          8           0       -1.620321   -1.521471   -1.347559
     17          1           0       -0.732727   -1.792799   -1.676906
     18          8           0       -2.059384   -0.159323    2.027755
     19          1           0       -1.125844    0.045970    2.209614
     20          8           0       -2.236009    1.212577   -1.374852
     21          1           0       -2.143357    0.341447   -1.809792
     22          8           0        3.371982   -1.769701   -0.358341
     23          1           0        2.403782   -1.967245   -0.480479
     24          1           0        3.220961   -0.377259    0.413827
     25          1           0        3.724830   -1.690626   -1.256972
     26          8           0        0.777415   -1.851934   -0.636947
     27          1           0        0.341275   -1.914882    1.363884
     28          8           0        2.855796    0.412562    0.919029
     29          1           0        2.876758    1.184215    0.317571
     30          1           0        1.451518    0.250394    0.922487
 ---------------------------------------------------------------------

 Alpha  occ. eigenvalues --  -19.18917 -19.18198 -19.15343 -19.14792 -19.14691
 Alpha  occ. eigenvalues --  -19.14360 -19.14225 -19.13795 -10.29649 -10.25970
 Alpha  occ. eigenvalues --  -10.25371 -10.24455 -10.24159 -10.23945  -1.07414
 Alpha  occ. eigenvalues --   -1.05683  -1.03869  -1.02825  -1.01444  -1.01327
 Alpha  occ. eigenvalues --   -1.00698  -0.99192  -0.78479  -0.75933  -0.69723
 Alpha  occ. eigenvalues --   -0.65136  -0.62033  -0.57453  -0.56128  -0.54929
 Alpha  occ. eigenvalues --   -0.54146  -0.53225  -0.52929  -0.51353  -0.49034
 Alpha  occ. eigenvalues --   -0.48320  -0.46608  -0.45527  -0.44826  -0.43231
 Alpha  occ. eigenvalues --   -0.42457  -0.42150  -0.40355  -0.39010  -0.38544
 Alpha  occ. eigenvalues --   -0.37237  -0.37070  -0.35592  -0.34007  -0.32489
 Alpha  occ. eigenvalues --   -0.31275  -0.31124  -0.30878  -0.29975  -0.28766
 Alpha  occ. eigenvalues --   -0.27129  -0.26994  -0.24989
 Alpha virt. eigenvalues --    0.01115   0.03856   0.06889   0.07667   0.09617
 Alpha virt. eigenvalues --    0.10903   0.11558   0.13432   0.13655   0.14372
 Alpha virt. eigenvalues --    0.15086   0.15789   0.16190   0.17453   0.19018

 Mulliken charges:
               1
     1  C    0.127071
     2  C    0.108652
     3  C    0.086570
     4  C    0.070927
     5  H    0.151573
     6  H    0.161921
     7  H    0.153422
     8  H    0.144656
     9  C    0.305438
    10  O   -0.680363
    11  C   -0.077548
    12  H    0.168523
    13  H    0.148813
    14  O   -0.639637
    15  H    0.412816
    16  O   -0.670366
    17  H    0.420606
    18  O   -0.643827
    19  H    0.409953
    20  O   -0.650477
    21  H    0.418492
    22  O   -0.821668
    23  H    0.443318
    24  H    0.442456
    25  H    0.395185
    26  O   -0.572551
    27  H    0.145629
    28  O   -0.854116
    29  H    0.422759
    30  H    0.471772
 Sum of Mulliken charges =  -0.00000

 Dipole moment (field-independent basis, Debye):
    X=              2.7323    Y=              2.6529    Z=             -1.3593  Tot=              4.0436
 Quadrupole moment (field-independent basis, Debye-Ang):
   XX=            -92.1682   YY=            -73.3340   ZZ=            -87.2356
   XY=              8.9465   XZ=             -8.0334   YZ=              1.5846

  Exact polarizability:   0.000   0.000   0.000   0.000   0.000   0.000
 Approx polarizability: 137.097  -2.813 130.994  -3.988   5.300 135.882

 Normal termination of Gaussian 09 at Sat Jan 14 01:38:40 2017.
