 Gaussian 09, Revision E.01,
 Gaussian 09:  ES64L-G09RevE.01 30-Nov-2015

 -----------------------------------------
 # opt=(MaxCycle=1000) freq B3LYP/6-31G(d)
 -----------------------------------------

 ------------------------------------------------
 ./boats/3/glo_2w_beta_ts_boat3_B3LYP_631Gd_r.out
 ------------------------------------------------
 Symbolic Z-matrix:
 Charge =  0 Multiplicity = 1

 SCF Done:  E(RB3LYP) =  -839.963979234     A.U. after   14 cycles
 SCF Done:  E(RB3LYP) =  -839.968935894     A.U. after   14 cycles
 SCF Done:  E(RB3LYP) =  -839.974844149     A.U. after   13 cycles
 SCF Done:  E(RB3LYP) =  -839.980996366     A.U. after   13 cycles
 SCF Done:  E(RB3LYP) =  -839.985587801     A.U. after   12 cycles
 SCF Done:  E(RB3LYP) =  -839.987905931     A.U. after   13 cycles
 SCF Done:  E(RB3LYP) =  -839.988485048     A.U. after   12 cycles
 SCF Done:  E(RB3LYP) =  -839.989063132     A.U. after   12 cycles
 SCF Done:  E(RB3LYP) =  -839.989909594     A.U. after   12 cycles
 SCF Done:  E(RB3LYP) =  -839.990408724     A.U. after   12 cycles
 SCF Done:  E(RB3LYP) =  -839.995034490     A.U. after    8 cycles
 SCF Done:  E(RB3LYP) =  -839.995036759     A.U. after    8 cycles
 SCF Done:  E(RB3LYP) =  -839.995037720     A.U. after    8 cycles
 SCF Done:  E(RB3LYP) =  -839.995038377     A.U. after    8 cycles
 SCF Done:  E(RB3LYP) =  -839.995038764     A.U. after    8 cycles
 SCF Done:  E(RB3LYP) =  -839.995039134     A.U. after    8 cycles
 SCF Done:  E(RB3LYP) =  -839.995039507     A.U. after    8 cycles
 SCF Done:  E(RB3LYP) =  -839.995039758     A.U. after    8 cycles
 SCF Done:  E(RB3LYP) =  -839.995039822     A.U. after    7 cycles
 Optimization completed.
    -- Stationary point found.
 Normal termination of Gaussian 09 at Sun Jan 15 13:24:44 2017.

 --------------------------------------------------------------------
 #N Geom=AllCheck Guess=TCheck SCRF=Check GenChk RB3LYP/6-31G(d) Freq
 --------------------------------------------------------------------

 Structure from the checkpoint file:  "/scratch/10462928.yak.local/Gau-9515.chk"
 ------------------------------------------------
 ./boats/3/glo_2w_beta_ts_boat3_B3LYP_631Gd_r.out
 ------------------------------------------------
 Charge =  0 Multiplicity = 1

                         Standard orientation:
 ---------------------------------------------------------------------
 Center     Atomic      Atomic             Coordinates (Angstroms)
 Number     Number       Type             X           Y           Z
 ---------------------------------------------------------------------
      1          6           0        1.036355   -0.007568    0.839620
      2          6           0       -0.569166    1.922933    0.112289
      3          8           0        0.086585   -1.093051   -1.189916
      4          6           0       -1.209335    1.402148   -1.175492
      5          6           0        1.230419   -0.493767   -0.616649
      6          6           0       -0.226845    0.826077    1.161490
      7          1           0       -0.530576    1.367764   -2.050251
      8          1           0        0.055976    1.377825    2.070167
      9          1           0       -1.331540    2.565491    0.577376
     10          1           0        1.438961    0.397252   -1.222671
     11          1           0        1.013289   -0.887523    1.507179
     12          6           0        2.430543   -1.451183   -0.734317
     13          1           0        2.491404   -1.819515   -1.765274
     14          1           0        2.288578   -2.314824   -0.074885
     15          8           0       -2.386344    1.119757   -1.270371
     16          8           0        3.673544   -0.851111   -0.324397
     17          1           0        3.984296   -0.288171   -1.051394
     18          8           0        0.574943    2.691946   -0.220687
     19          1           0        1.336941    2.340896    0.280594
     20          8           0       -1.376277    0.051625    1.454763
     21          1           0       -1.169625   -0.903794    1.409348
     22          8           0        2.136533    0.838956    1.202236
     23          1           0        2.947631    0.383614    0.890100
     24          8           0       -1.405767   -2.543183    0.563198
     25          1           0       -2.283958   -2.166816    0.252030
     26          1           0       -0.266386   -1.798993   -0.604027
     27          1           0       -1.584395   -3.427384    0.915283
     28          8           0       -3.544451   -1.084103   -0.003603
     29          1           0       -3.463386   -0.688937   -0.889224
     30          1           0       -3.149171   -0.375401    0.544230
 ---------------------------------------------------------------------

 SCF Done:  E(RB3LYP) =  -839.995039822     A.U. after    1 cycles

 The electronic state is 1-A.
 Alpha  occ. eigenvalues --  -19.18774 -19.17057 -19.16219 -19.15206 -19.15033
 Alpha  occ. eigenvalues --  -19.14955 -19.14904 -19.14088 -10.27312 -10.25475
 Alpha  occ. eigenvalues --  -10.25338 -10.25255 -10.24970 -10.24116  -1.05952
 Alpha  occ. eigenvalues --   -1.04862  -1.03916  -1.03237  -1.02320  -1.01802
 Alpha  occ. eigenvalues --   -1.01276  -1.00310  -0.77864  -0.74966  -0.70390
 Alpha  occ. eigenvalues --   -0.65699  -0.62088  -0.57360  -0.55801  -0.55033
 Alpha  occ. eigenvalues --   -0.53293  -0.51871  -0.51517  -0.50212  -0.49585
 Alpha  occ. eigenvalues --   -0.48067  -0.46797  -0.44625  -0.44352  -0.43310
 Alpha  occ. eigenvalues --   -0.41989  -0.41827  -0.40479  -0.39184  -0.38526
 Alpha  occ. eigenvalues --   -0.37919  -0.37037  -0.35533  -0.34690  -0.33836
 Alpha  occ. eigenvalues --   -0.32360  -0.31446  -0.30936  -0.29818  -0.28583
 Alpha  occ. eigenvalues --   -0.27057  -0.26157  -0.24263
 Alpha virt. eigenvalues --   -0.02612   0.03284   0.05002   0.08608   0.09496
 Alpha virt. eigenvalues --    0.10322   0.11745   0.12031   0.13424   0.14247
 Alpha virt. eigenvalues --    0.14853   0.16714   0.17183   0.18104   0.19416

 Mulliken charges:
               1
     1  C    0.048603
     2  C    0.073510
     3  O   -0.662699
     4  C    0.275360
     5  C    0.098187
     6  C    0.114888
     7  H    0.127904
     8  H    0.159235
     9  H    0.160252
    10  H    0.135558
    11  H    0.127716
    12  C   -0.080791
    13  H    0.159975
    14  H    0.155494
    15  O   -0.433205
    16  O   -0.621808
    17  H    0.408891
    18  O   -0.670441
    19  H    0.425467
    20  O   -0.688760
    21  H    0.434570
    22  O   -0.668557
    23  H    0.424976
    24  O   -0.835956
    25  H    0.442038
    26  H    0.433173
    27  H    0.408961
    28  O   -0.818402
    29  H    0.430602
    30  H    0.435256
 Sum of Mulliken charges =  -0.00000

 Dipole moment (field-independent basis, Debye):
    X=              3.0234    Y=             -3.3585    Z=             -0.1668  Tot=              4.5220
 Quadrupole moment (field-independent basis, Debye-Ang):
   XX=            -86.5677   YY=            -79.8416   ZZ=            -84.3842
   XY=              2.7984   XZ=             -7.0997   YZ=             -2.2191

  Exact polarizability: 107.400   2.403  95.207   0.125  -0.394  82.972
 Approx polarizability: 148.014  10.153 130.044   3.036  -2.450 120.165

                      1                      2                      3
                      A                      A                      A
 Frequencies --     34.8424                66.0887                76.0140
 Red. masses --      5.8906                 5.8386                 8.2993
 Frc consts  --      0.0042                 0.0150                 0.0283
 IR Inten    --      1.3481                 2.6095                 2.4289

                      4                      5                      6
                      A                      A                      A
 Frequencies --     99.9829               122.2961               128.6984
 Red. masses --      5.9558                 7.9603                 6.2862
 Frc consts  --      0.0351                 0.0701                 0.0613
 IR Inten    --      1.9711                 1.9135                 2.2346

                      7                      8                      9
                      A                      A                      A
 Frequencies --    140.3818               161.2568               186.8144
 Red. masses --      6.3973                 2.5149                 6.9383
 Frc consts  --      0.0743                 0.0385                 0.1427
 IR Inten    --      0.1562                11.9226                 3.5588

                     10                     11                     12
                      A                      A                      A
 Frequencies --    194.0454               214.0559               222.1158
 Red. masses --      1.4639                 4.1455                 4.5444
 Frc consts  --      0.0325                 0.1119                 0.1321
 IR Inten    --     12.5313                 6.9961                13.9747

                     13                     14                     15
                      A                      A                      A
 Frequencies --    248.7204               259.8226               272.6516
 Red. masses --      1.8679                 1.5585                 3.5352
 Frc consts  --      0.0681                 0.0620                 0.1548
 IR Inten    --     27.8515                55.5542                10.1437

                     16                     17                     18
                      A                      A                      A
 Frequencies --    283.2259               312.8061               350.2462
 Red. masses --      4.3566                 6.1104                 5.2199
 Frc consts  --      0.2059                 0.3523                 0.3773
 IR Inten    --      6.0118                 7.2462                53.2460

                     19                     20                     21
                      A                      A                      A
 Frequencies --    355.1014               362.0692               376.1835
 Red. masses --      2.4443                 4.7044                 1.7430
 Frc consts  --      0.1816                 0.3634                 0.1453
 IR Inten    --     37.3408                 5.4084               102.6806

                     22                     23                     24
                      A                      A                      A
 Frequencies --    393.3928               420.0705               455.8341
 Red. masses --      2.7301                 6.6485                 1.1687
 Frc consts  --      0.2489                 0.6912                 0.1431
 IR Inten    --     32.4188                 1.3615                60.7887

                     25                     26                     27
                      A                      A                      A
 Frequencies --    469.3879               499.7083               519.8576
 Red. masses --      2.3604                 1.8722                 1.3120
 Frc consts  --      0.3064                 0.2754                 0.2089
 IR Inten    --     16.7049                20.1608                83.8953

                     28                     29                     30
                      A                      A                      A
 Frequencies --    534.8758               559.6218               586.0549
 Red. masses --      1.8793                 4.1757                 3.1732
 Frc consts  --      0.3168                 0.7705                 0.6421
 IR Inten    --     19.1768                11.4768                 9.5796

                     31                     32                     33
                      A                      A                      A
 Frequencies --    630.7840               699.5905               738.6950
 Red. masses --      1.1722                 2.8040                 1.1055
 Frc consts  --      0.2748                 0.8086                 0.3554
 IR Inten    --    231.2252                19.5166               465.5693

                     34                     35                     36
                      A                      A                      A
 Frequencies --    749.0258               818.7450               866.7375
 Red. masses --      1.0750                 2.9218                 1.0902
 Frc consts  --      0.3554                 1.1540                 0.4826
 IR Inten    --    179.4599                 3.2874                18.2129

                     37                     38                     39
                      A                      A                      A
 Frequencies --    903.7328               979.5520              1010.4612
 Red. masses --      2.0445                 1.9999                 2.4481
 Frc consts  --      0.9838                 1.1306                 1.4727
 IR Inten    --     17.7007                24.2408                19.4179

                     40                     41                     42
                      A                      A                      A
 Frequencies --   1035.3891              1040.6476              1066.7116
 Red. masses --      1.6017                 2.9885                 2.3507
 Frc consts  --      1.0117                 1.9068                 1.5759
 IR Inten    --    113.2689                30.2569                 7.6794

                     43                     44                     45
                      A                      A                      A
 Frequencies --   1082.6982              1102.2475              1116.6585
 Red. masses --      4.6811                 3.1329                 4.2603
 Frc consts  --      3.2331                 2.2426                 3.1299
 IR Inten    --     82.8753                65.7370                45.3957

                     46                     47                     48
                      A                      A                      A
 Frequencies --   1131.2313              1144.4855              1164.3399
 Red. masses --      2.8010                 3.0047                 3.6564
 Frc consts  --      2.1119                 2.3189                 2.9205
 IR Inten    --     35.9463                69.8092                25.8850

                     49                     50                     51
                      A                      A                      A
 Frequencies --   1189.1417              1268.8164              1311.0546
 Red. masses --      1.3403                 1.2693                 1.1646
 Frc consts  --      1.1167                 1.2040                 1.1794
 IR Inten    --      7.3874                10.6057                 3.1956

                     52                     53                     54
                      A                      A                      A
 Frequencies --   1324.5960              1333.1328              1354.1475
 Red. masses --      1.1148                 1.1770                 1.1748
 Frc consts  --      1.1524                 1.2324                 1.2692
 IR Inten    --     35.2161                 3.7950                 5.5365

                     55                     56                     57
                      A                      A                      A
 Frequencies --   1369.0592              1393.5977              1394.8766
 Red. masses --      1.2044                 1.2131                 1.2107
 Frc consts  --      1.3300                 1.3881                 1.3879
 IR Inten    --      3.7191                11.1110                 9.4107

                     58                     59                     60
                      A                      A                      A
 Frequencies --   1414.4600              1423.4534              1433.8722
 Red. masses --      1.2326                 1.2707                 1.2893
 Frc consts  --      1.4530                 1.5170                 1.5618
 IR Inten    --      7.9537                24.9667                43.4365

                     61                     62                     63
                      A                      A                      A
 Frequencies --   1468.1846              1483.3251              1485.1088
 Red. masses --      1.1999                 1.3589                 1.2769
 Frc consts  --      1.5239                 1.7616                 1.6593
 IR Inten    --     19.1851                30.2636               149.2271

                     64                     65                     66
                      A                      A                      A
 Frequencies --   1495.3831              1530.6559              1718.1229
 Red. masses --      1.2870                 1.0999                 1.0969
 Frc consts  --      1.6956                 1.5184                 1.9077
 IR Inten    --     70.9741                 7.0903               234.6242

                     67                     68                     69
                      A                      A                      A
 Frequencies --   1745.7124              1820.0359              2968.3108
 Red. masses --      1.1183                 6.4153                 1.0830
 Frc consts  --      2.0080                12.5207                 5.6221
 IR Inten    --    110.0319               101.4965                42.3146

                     70                     71                     72
                      A                      A                      A
 Frequencies --   2973.6128              3013.8869              3027.3412
 Red. masses --      1.0869                 1.0835                 1.0852
 Frc consts  --      5.6625                 5.7987                 5.8596
 IR Inten    --     73.9509                31.1859                40.5883

                     73                     74                     75
                      A                      A                      A
 Frequencies --   3057.1681              3060.6537              3112.6761
 Red. masses --      1.0680                 1.0757                 1.1096
 Frc consts  --      5.8810                 5.9373                 6.3339
 IR Inten    --     17.2155                40.4560                31.7184

                     76                     77                     78
                      A                      A                      A
 Frequencies --   3145.6567              3512.0231              3552.4357
 Red. masses --      1.0666                 1.0685                 1.0663
 Frc consts  --      6.2184                 7.7650                 7.9287
 IR Inten    --    728.9620               243.1918               361.5876

                     79                     80                     81
                      A                      A                      A
 Frequencies --   3591.0114              3609.1325              3641.7812
 Red. masses --      1.0676                 1.0673                 1.0555
 Frc consts  --      8.1112                 8.1913                 8.2481
 IR Inten    --    445.8895               120.5357               250.5375

                     82                     83                     84
                      A                      A                      A
 Frequencies --   3742.7280              3757.6123              3805.7148
 Red. masses --      1.0664                 1.0699                 1.0665
 Frc consts  --      8.8014                 8.9002                 9.1011
 IR Inten    --     28.3955                74.4553                43.5483

 - Thermochemistry -
 -------------------
 Temperature   298.150 Kelvin.  Pressure   1.00000 Atm.
 Atom     1 has atomic number  6 and mass  12.00000

 Molecular mass:   216.08452 amu.
 Principal axes and moments of inertia in atomic units:
                           1         2         3
     Eigenvalues --  2281.829133693.989734636.77539
           X            0.99987   0.01097  -0.01155
           Y           -0.01093   0.99994   0.00321
           Z            0.01159  -0.00308   0.99993
 This molecule is an asymmetric top.
 Rotational symmetry number  1.
 Warning -- assumption of classical behavior for rotation
           may cause significant error
 Rotational temperatures (Kelvin)      0.03796     0.02345     0.01868
 Rotational constants (GHZ):           0.79092     0.48856     0.38922
 Zero-point vibrational energy     650268.7 (Joules/Mol)
                                  155.41795 (Kcal/Mol)
 Warning -- explicit consideration of  30 degrees of freedom as
           vibrations may cause significant error
 Vibrational temperatures:     50.13    95.09   109.37   143.85   175.96
          (Kelvin)            185.17   201.98   232.01   268.78   279.19
                              307.98   319.57   357.85   373.83   392.28
                              407.50   450.06   503.93   510.91   520.94
                              541.24   566.00   604.39   655.84   675.34
                              718.97   747.96   769.57   805.17   843.20
                              907.56  1006.55  1062.82  1077.68  1177.99
                             1247.04  1300.27  1409.36  1453.83  1489.69
                             1497.26  1534.76  1557.76  1585.89  1606.62
                             1627.59  1646.66  1675.22  1710.91  1825.54
                             1886.31  1905.80  1918.08  1948.31  1969.77
                             2005.07  2006.91  2035.09  2048.03  2063.02
                             2112.39  2134.17  2136.74  2151.52  2202.27
                             2471.99  2511.69  2618.62  4270.73  4278.36
                             4336.31  4355.66  4398.58  4403.59  4478.44
                             4525.89  5053.01  5111.16  5166.66  5192.73
                             5239.70  5384.94  5406.36  5475.57

 Zero-point correction=                           0.247674 (Hartree/Particle)
 Thermal correction to Energy=                    0.265411
 Thermal correction to Enthalpy=                  0.266355
 Thermal correction to Gibbs Free Energy=         0.203427
 Sum of electronic and zero-point Energies=           -839.747366
 Sum of electronic and thermal Energies=              -839.729629
 Sum of electronic and thermal Enthalpies=            -839.728684
 Sum of electronic and thermal Free Energies=         -839.791613

                     E (Thermal)             CV                S
                      KCal/Mol        Cal/Mol-Kelvin    Cal/Mol-Kelvin
 Total                  166.548             65.292            132.444
 Electronic               0.000              0.000              0.000
 Translational            0.889              2.981             42.015
 Rotational               0.889              2.981             32.036
 Vibrational            164.771             59.330             58.394
 Vibration     1          0.594              1.983              5.533
 Vibration     2          0.597              1.970              4.267
 Vibration     3          0.599              1.965              3.991
 Vibration     4          0.604              1.949              3.455
 Vibration     5          0.610              1.931              3.064
 Vibration     6          0.611              1.925              2.965
 Vibration     7          0.615              1.913              2.799
 Vibration     8          0.622              1.890              2.535
 Vibration     9          0.632              1.858              2.259
 Vibration    10          0.635              1.848              2.189
 Vibration    11          0.644              1.820              2.009
 Vibration    12          0.648              1.807              1.942
 Vibration    13          0.662              1.765              1.740
 Vibration    14          0.668              1.746              1.663
 Vibration    15          0.676              1.724              1.579
 Vibration    16          0.682              1.705              1.514
 Vibration    17          0.701              1.649              1.347
 Vibration    18          0.727              1.575              1.165
 Vibration    19          0.731              1.565              1.143
 Vibration    20          0.736              1.550              1.113
 Vibration    21          0.747              1.521              1.054
 Vibration    22          0.761              1.484              0.987
 Vibration    23          0.783              1.427              0.892
 Vibration    24          0.814              1.348              0.778
 Vibration    25          0.826              1.318              0.739
 Vibration    26          0.855              1.251              0.659
 Vibration    27          0.875              1.206              0.610
 Vibration    28          0.890              1.173              0.576
 Vibration    29          0.915              1.119              0.525
 Vibration    30          0.943              1.062              0.474

 Normal termination of Gaussian 09 at Sun Jan 15 13:42:56 2017.
