 Gaussian 09, Revision E.01,
 Gaussian 09:  ES64L-G09RevE.01 30-Nov-2015

 -----------------------------------------
 # opt=(MaxCycle=1000) freq B3LYP/6-31G(d)
 -----------------------------------------

 -----------------------------------------------
 ./boats/3/glo_1w_alpha_ts_boat3_B3LYP_631Gd.out
 -----------------------------------------------
 Symbolic Z-matrix:
 Charge =  0 Multiplicity = 1

 SCF Done:  E(RB3LYP) =  -839.965029591     A.U. after   14 cycles
 SCF Done:  E(RB3LYP) =  -839.969050021     A.U. after   14 cycles
 SCF Done:  E(RB3LYP) =  -839.975826215     A.U. after   14 cycles
 SCF Done:  E(RB3LYP) =  -839.976486600     A.U. after   13 cycles
 SCF Done:  E(RB3LYP) =  -839.982820153     A.U. after   13 cycles
 SCF Done:  E(RB3LYP) =  -839.984569104     A.U. after   12 cycles
 SCF Done:  E(RB3LYP) =  -839.985972514     A.U. after   13 cycles
 SCF Done:  E(RB3LYP) =  -839.986921336     A.U. after   13 cycles
 SCF Done:  E(RB3LYP) =  -839.987646041     A.U. after   13 cycles
 SCF Done:  E(RB3LYP) =  -839.986746150     A.U. after   16 cycles
 SCF Done:  E(RB3LYP) =  -839.997802695     A.U. after   11 cycles
 SCF Done:  E(RB3LYP) =  -839.997819679     A.U. after   11 cycles
 SCF Done:  E(RB3LYP) =  -839.997827154     A.U. after    9 cycles
 SCF Done:  E(RB3LYP) =  -839.997833161     A.U. after    8 cycles
 SCF Done:  E(RB3LYP) =  -839.997837995     A.U. after    8 cycles
 SCF Done:  E(RB3LYP) =  -839.997841216     A.U. after    8 cycles
 SCF Done:  E(RB3LYP) =  -839.997843384     A.U. after    8 cycles
 SCF Done:  E(RB3LYP) =  -839.997844082     A.U. after    7 cycles
 SCF Done:  E(RB3LYP) =  -839.997844599     A.U. after    7 cycles
 Optimization completed.
    -- Stationary point found.
 Normal termination of Gaussian 09 at Sun Jan 15 14:20:59 2017.

 --------------------------------------------------------------------
 #N Geom=AllCheck Guess=TCheck SCRF=Check GenChk RB3LYP/6-31G(d) Freq
 --------------------------------------------------------------------

 Structure from the checkpoint file:  "/scratch/10462930.yak.local/Gau-7767.chk"
 -----------------------------------------------
 ./boats/3/glo_1w_alpha_ts_boat3_B3LYP_631Gd.out
 -----------------------------------------------
 Charge =  0 Multiplicity = 1

                         Standard orientation:
 ---------------------------------------------------------------------
 Center     Atomic      Atomic             Coordinates (Angstroms)
 Number     Number       Type             X           Y           Z
 ---------------------------------------------------------------------
      1          6           0       -0.365010   -0.395710    0.811244
      2          6           0        1.253279    1.220209   -0.517097
      3          8           0        0.191575   -1.647461   -1.285795
      4          6           0        2.487427    1.218674    0.365351
      5          6           0       -0.737217   -1.481691   -0.226312
      6          6           0       -0.052620    1.035441    0.308744
      7          1           0        0.049128    1.653417    1.216090
      8          1           0        1.325747    0.443992   -1.287234
      9          1           0       -0.807524   -2.413979    0.366734
     10          1           0       -1.245538   -0.294667    1.459306
     11          6           0       -2.087382   -1.271788   -0.926511
     12          1           0       -2.263209   -2.123672   -1.594770
     13          1           0       -2.057408   -0.358562   -1.518484
     14          8           0       -3.190957   -1.118585   -0.017648
     15          1           0       -3.234691   -1.902624    0.551988
     16          8           0        1.244864    2.522490   -1.082506
     17          1           0        0.295920    2.708120   -1.230827
     18          8           0       -1.078630    1.570263   -0.518534
     19          1           0       -1.885862    1.722934    0.034255
     20          8           0        0.685029   -0.823746    1.674634
     21          1           0        1.336325   -1.345666    1.163494
     22          1           0        2.579984    2.127129    0.990988
     23          8           0        3.369888    0.377282    0.377241
     24          8           0        2.575879   -2.169701   -0.003387
     25          1           0        3.041600   -1.299720   -0.056348
     26          1           0        1.005995   -2.062628   -0.939278
     27          1           0        3.192884   -2.789991    0.412057
     28          8           0       -3.388773    1.480958    0.908461
     29          1           0       -4.127020    1.921632    0.461109
     30          1           0       -3.468180    0.531484    0.658674
 ---------------------------------------------------------------------

 SCF Done:  E(RB3LYP) =  -839.997844599     A.U. after    1 cycles

 The electronic state is 1-A.
 Alpha  occ. eigenvalues --  -19.18135 -19.17383 -19.17141 -19.15777 -19.14349
 Alpha  occ. eigenvalues --  -19.13758 -19.13645 -19.13412 -10.28889 -10.24077
 Alpha  occ. eigenvalues --  -10.24060 -10.23666 -10.23567 -10.23255  -1.06531
 Alpha  occ. eigenvalues --   -1.04746  -1.03447  -1.03217  -1.01678  -1.01365
 Alpha  occ. eigenvalues --   -1.00147  -0.99558  -0.76844  -0.74647  -0.69238
 Alpha  occ. eigenvalues --   -0.64176  -0.60554  -0.58153  -0.55349  -0.54399
 Alpha  occ. eigenvalues --   -0.53836  -0.51752  -0.50629  -0.50015  -0.49717
 Alpha  occ. eigenvalues --   -0.46872  -0.45854  -0.44788  -0.44104  -0.42197
 Alpha  occ. eigenvalues --   -0.42027  -0.40800  -0.40204  -0.39382  -0.38390
 Alpha  occ. eigenvalues --   -0.36469  -0.36081  -0.34885  -0.34458  -0.32863
 Alpha  occ. eigenvalues --   -0.32286  -0.31179  -0.29424  -0.28906  -0.27527
 Alpha  occ. eigenvalues --   -0.27002  -0.25762  -0.24564
 Alpha virt. eigenvalues --   -0.03973   0.03879   0.05236   0.07244   0.10106
 Alpha virt. eigenvalues --    0.10706   0.12724   0.13839   0.15424   0.15778
 Alpha virt. eigenvalues --    0.16508   0.17880   0.18126   0.18626   0.18763

 Mulliken charges:
               1
     1  C    0.113198
     2  C    0.064952
     3  O   -0.660123
     4  C    0.282117
     5  C    0.067851
     6  C    0.096564
     7  H    0.132537
     8  H    0.166315
     9  H    0.109488
    10  H    0.126536
    11  C   -0.058071
    12  H    0.148407
    13  H    0.191327
    14  O   -0.639303
    15  H    0.405830
    16  O   -0.659349
    17  H    0.420890
    18  O   -0.696074
    19  H    0.437622
    20  O   -0.679760
    21  H    0.415734
    22  H    0.141568
    23  O   -0.434760
    24  O   -0.820096
    25  H    0.443518
    26  H    0.441555
    27  H    0.413425
    28  O   -0.814358
    29  H    0.400197
    30  H    0.442263
 Sum of Mulliken charges =  -0.00000

 Dipole moment (field-independent basis, Debye):
    X=             -2.3803    Y=             -2.6971    Z=              0.8744  Tot=              3.7020
 Quadrupole moment (field-independent basis, Debye-Ang):
   XX=            -69.5809   YY=            -75.0962   ZZ=            -92.4811
   XY=             -7.3326   XZ=              2.7535   YZ=             -2.1691

  Exact polarizability: 112.964  -5.073 100.693   1.958   0.179  77.194
 Approx polarizability: 145.879 -13.443 137.037   1.044  -2.520 117.076

                      1                      2                      3
                      A                      A                      A
 Frequencies --     46.0403                59.1701                71.4661
 Red. masses --      5.6721                 6.4609                 5.8932
 Frc consts  --      0.0071                 0.0133                 0.0177
 IR Inten    --      0.5551                 8.2435                 1.5980

                      4                      5                      6
                      A                      A                      A
 Frequencies --     96.2466               114.4293               127.2153
 Red. masses --      5.1931                 5.7612                 9.0833
 Frc consts  --      0.0283                 0.0444                 0.0866
 IR Inten    --      7.5056                 7.0051                 6.7670

                      7                      8                      9
                      A                      A                      A
 Frequencies --    152.9950               159.6922               184.1561
 Red. masses --      3.5355                 4.1347                 5.6552
 Frc consts  --      0.0488                 0.0621                 0.1130
 IR Inten    --     13.0687                 9.5796                27.0052

                     10                     11                     12
                      A                      A                      A
 Frequencies --    206.9983               214.4527               227.8269
 Red. masses --      6.6153                 5.4091                 2.8535
 Frc consts  --      0.1670                 0.1466                 0.0873
 IR Inten    --     10.9767                 9.0369                19.9749

                     13                     14                     15
                      A                      A                      A
 Frequencies --    244.4640               251.6373               263.8638
 Red. masses --      2.5345                 2.7874                 3.1388
 Frc consts  --      0.0892                 0.1040                 0.1288
 IR Inten    --     16.3256                27.5917                23.0014

                     16                     17                     18
                      A                      A                      A
 Frequencies --    297.1475               303.7318               322.3005
 Red. masses --      1.5180                 3.6812                 1.8346
 Frc consts  --      0.0790                 0.2001                 0.1123
 IR Inten    --     53.2955                13.6979                86.6687

                     19                     20                     21
                      A                      A                      A
 Frequencies --    341.7144               348.6286               391.4329
 Red. masses --      3.9243                 1.4547                 3.5224
 Frc consts  --      0.2700                 0.1042                 0.3180
 IR Inten    --     24.2339               150.8293                10.4169

                     22                     23                     24
                      A                      A                      A
 Frequencies --    415.0196               418.8058               436.5890
 Red. masses --      1.5170                 1.8531                 1.5048
 Frc consts  --      0.1539                 0.1915                 0.1690
 IR Inten    --     81.0557                17.0798                12.4717

                     25                     26                     27
                      A                      A                      A
 Frequencies --    462.4960               482.9630               501.2254
 Red. masses --      2.6542                 4.1187                 5.9576
 Frc consts  --      0.3345                 0.5660                 0.8818
 IR Inten    --     49.5183                11.5152                 4.1727

                     28                     29                     30
                      A                      A                      A
 Frequencies --    540.2531               559.7875               586.6870
 Red. masses --      1.2573                 2.3483                 1.2086
 Frc consts  --      0.2162                 0.4336                 0.2451
 IR Inten    --     64.1430                81.0266               109.5612

                     31                     32                     33
                      A                      A                      A
 Frequencies --    610.4479               692.2299               744.4274
 Red. masses --      3.3718                 1.0995                 1.3360
 Frc consts  --      0.7403                 0.3104                 0.4362
 IR Inten    --     17.9117                94.5504               140.3925

                     34                     35                     36
                      A                      A                      A
 Frequencies --    768.4533               776.8300               858.4893
 Red. masses --      2.1887                 2.6277                 1.0564
 Frc consts  --      0.7615                 0.9343                 0.4587
 IR Inten    --     51.5726                 3.6844               221.7315

                     37                     38                     39
                      A                      A                      A
 Frequencies --    921.2625               955.0234              1011.3302
 Red. masses --      2.6903                 1.0790                 1.8483
 Frc consts  --      1.3453                 0.5798                 1.1138
 IR Inten    --      4.0815               103.2315                28.8694

                     40                     41                     42
                      A                      A                      A
 Frequencies --   1018.4622              1024.5229              1064.0612
 Red. masses --      2.5886                 2.7095                 3.3507
 Frc consts  --      1.5820                 1.6756                 2.2352
 IR Inten    --    106.5590                82.7034                85.4674

                     43                     44                     45
                      A                      A                      A
 Frequencies --   1077.2609              1094.4897              1104.3014
 Red. masses --      4.1043                 4.7947                 4.4310
 Frc consts  --      2.8063                 3.3841                 3.1837
 IR Inten    --      9.5155               153.1339                11.9885

                     46                     47                     48
                      A                      A                      A
 Frequencies --   1112.1736              1124.9796              1170.3136
 Red. masses --      3.9185                 3.5139                 2.3775
 Frc consts  --      2.8557                 2.6202                 1.9186
 IR Inten    --     39.2981                11.2715                26.2173

                     49                     50                     51
                      A                      A                      A
 Frequencies --   1192.0543              1251.0035              1304.6730
 Red. masses --      1.2832                 1.2355                 1.1692
 Frc consts  --      1.0744                 1.1392                 1.1725
 IR Inten    --     16.3399                16.3663                20.6073

                     52                     53                     54
                      A                      A                      A
 Frequencies --   1333.0230              1339.2458              1351.5706
 Red. masses --      1.2612                 1.1652                 1.1575
 Frc consts  --      1.3204                 1.2314                 1.2458
 IR Inten    --     45.3683                17.3499                22.8144

                     55                     56                     57
                      A                      A                      A
 Frequencies --   1372.8289              1377.5817              1393.5250
 Red. masses --      1.1670                 1.2120                 1.2295
 Frc consts  --      1.2958                 1.3552                 1.4067
 IR Inten    --     56.6421                27.8796                29.4594

                     58                     59                     60
                      A                      A                      A
 Frequencies --   1414.9637              1419.0620              1428.0262
 Red. masses --      1.4360                 1.1767                 1.2084
 Frc consts  --      1.6939                 1.3962                 1.4518
 IR Inten    --     20.9207                28.4109                20.5515

                     61                     62                     63
                      A                      A                      A
 Frequencies --   1453.8663              1462.9392              1495.1709
 Red. masses --      1.4509                 1.3423                 1.2780
 Frc consts  --      1.8069                 1.6926                 1.6833
 IR Inten    --     38.9494                13.4253                13.0457

                     64                     65                     66
                      A                      A                      A
 Frequencies --   1503.6645              1532.5031              1712.9936
 Red. masses --      1.2675                 1.0791                 1.0868
 Frc consts  --      1.6884                 1.4932                 1.8789
 IR Inten    --     50.5870                 7.5936                88.5328

                     67                     68                     69
                      A                      A                      A
 Frequencies --   1722.7617              1799.6443              2938.2064
 Red. masses --      1.0745                 9.0359                 1.0826
 Frc consts  --      1.8788                17.2424                 5.5064
 IR Inten    --     66.9121               190.8314                68.7156

                     70                     71                     72
                      A                      A                      A
 Frequencies --   2985.2858              2994.6906              3046.9905
 Red. masses --      1.0843                 1.0860                 1.0845
 Frc consts  --      5.6934                 5.7385                 5.9322
 IR Inten    --      4.2165               110.5831                38.5982

                     73                     74                     75
                      A                      A                      A
 Frequencies --   3063.0471              3086.5668              3185.8278
 Red. masses --      1.0710                 1.0857                 1.0963
 Frc consts  --      5.9203                 6.0944                 6.5555
 IR Inten    --     54.1904                13.9744                 3.2042

                     76                     77                     78
                      A                      A                      A
 Frequencies --   3371.1485              3429.0188              3514.1178
 Red. masses --      1.0685                 1.0621                 1.0590
 Frc consts  --      7.1545                 7.3582                 7.7052
 IR Inten    --    689.3201               483.8154               606.8815

                     79                     80                     81
                      A                      A                      A
 Frequencies --   3576.8358              3614.9927              3632.0914
 Red. masses --      1.0678                 1.0641                 1.0661
 Frc consts  --      8.0490                 8.1928                 8.2866
 IR Inten    --     87.5841                82.5558               613.9286

                     82                     83                     84
                      A                      A                      A
 Frequencies --   3744.3697              3797.7368              3808.6878
 Red. masses --      1.0662                 1.0694                 1.0687
 Frc consts  --      8.8071                 9.0878                 9.1338
 IR Inten    --     23.3495                66.0143                78.8580

 - Thermochemistry -
 -------------------
 Temperature   298.150 Kelvin.  Pressure   1.00000 Atm.
 Atom     1 has atomic number  6 and mass  12.00000

 Molecular mass:   216.08452 amu.
 Principal axes and moments of inertia in atomic units:
                           1         2         3
     Eigenvalues --  2238.288923843.144325004.35100
           X            0.99981  -0.01925   0.00101
           Y            0.01924   0.99979   0.00715
           Z           -0.00115  -0.00713   0.99997
 This molecule is an asymmetric top.
 Rotational symmetry number  1.
 Warning -- assumption of classical behavior for rotation
           may cause significant error
 Rotational temperatures (Kelvin)      0.03870     0.02254     0.01731
 Rotational constants (GHZ):           0.80630     0.46960     0.36063
 Zero-point vibrational energy     649627.3 (Joules/Mol)
                                  155.26466 (Kcal/Mol)
 Warning -- explicit consideration of  31 degrees of freedom as
           vibrations may cause significant error
 Vibrational temperatures:     66.24    85.13   102.82   138.48   164.64
          (Kelvin)            183.03   220.13   229.76   264.96   297.82
                              308.55   327.79   351.73   362.05   379.64
                              427.53   437.00   463.72   491.65   501.60
                              563.18   597.12   602.57   628.15   665.43
                              694.88   721.15   777.30   805.41   844.11
                              878.30   995.96  1071.06  1105.63  1117.68
                             1235.17  1325.49  1374.06  1455.08  1465.34
                             1474.06  1530.94  1549.94  1574.72  1588.84
                             1600.17  1618.59  1683.82  1715.10  1799.91
                             1877.13  1917.92  1926.87  1944.61  1975.19
                             1982.03  2004.97  2035.81  2041.71  2054.61
                             2091.79  2104.84  2151.21  2163.44  2204.93
                             2464.61  2478.67  2589.28  4227.42  4295.16
                             4308.69  4383.93  4407.04  4440.88  4583.69
                             4850.32  4933.59  5056.03  5146.26  5201.16
                             5225.76  5387.31  5464.09  5479.85

 Zero-point correction=                           0.247430 (Hartree/Particle)
 Thermal correction to Energy=                    0.265271
 Thermal correction to Enthalpy=                  0.266215
 Thermal correction to Gibbs Free Energy=         0.203147
 Sum of electronic and zero-point Energies=           -839.750415
 Sum of electronic and thermal Energies=              -839.732574
 Sum of electronic and thermal Enthalpies=            -839.731629
 Sum of electronic and thermal Free Energies=         -839.794698

                     E (Thermal)             CV                S
                      KCal/Mol        Cal/Mol-Kelvin    Cal/Mol-Kelvin
 Total                  166.460             65.661            132.738
 Electronic               0.000              0.000              0.000
 Translational            0.889              2.981             42.015
 Rotational               0.889              2.981             32.132
 Vibrational            164.683             59.699             58.592
 Vibration     1          0.595              1.979              4.981
 Vibration     2          0.597              1.974              4.485
 Vibration     3          0.598              1.968              4.113
 Vibration     4          0.603              1.952              3.529
 Vibration     5          0.607              1.937              3.192
 Vibration     6          0.611              1.926              2.988
 Vibration     7          0.619              1.899              2.635
 Vibration     8          0.622              1.892              2.553
 Vibration     9          0.631              1.861              2.286
 Vibration    10          0.641              1.830              2.070
 Vibration    11          0.644              1.819              2.005
 Vibration    12          0.651              1.799              1.896
 Vibration    13          0.660              1.772              1.770
 Vibration    14          0.664              1.760              1.719
 Vibration    15          0.670              1.739              1.636
 Vibration    16          0.691              1.679              1.433
 Vibration    17          0.695              1.667              1.396
 Vibration    18          0.707              1.631              1.298
 Vibration    19          0.721              1.592              1.204
 Vibration    20          0.726              1.578              1.172
 Vibration    21          0.759              1.488              0.995
 Vibration    22          0.778              1.438              0.909
 Vibration    23          0.782              1.429              0.896
 Vibration    24          0.797              1.390              0.837
 Vibration    25          0.820              1.333              0.759
 Vibration    26          0.839              1.288              0.702
 Vibration    27          0.857              1.247              0.655
 Vibration    28          0.895              1.161              0.565
 Vibration    29          0.915              1.118              0.524
 Vibration    30          0.944              1.060              0.473
 Vibration    31          0.970              1.010              0.432

 Normal termination of Gaussian 09 at Sun Jan 15 14:39:16 2017.
