 Gaussian 09, Revision E.01,
 Gaussian 09:  ES64L-G09RevE.01 30-Nov-2015

 -----------------------------------------
 # opt=(MaxCycle=1000) freq B3LYP/6-31G(d)
 -----------------------------------------

 ----------------------------------------------
 ./boats/3/glo_1w_beta_ts_boat3_B3LYP_631Gd.out
 ----------------------------------------------
 Symbolic Z-matrix:
 Charge =  0 Multiplicity = 1

 SCF Done:  E(RB3LYP) =  -839.997852087     A.U. after   14 cycles
 Optimization completed.
    -- Stationary point found.
 Normal termination of Gaussian 09 at Sun Jan 15 11:47:22 2017.

 --------------------------------------------------------------------
 #N Geom=AllCheck Guess=TCheck SCRF=Check GenChk RB3LYP/6-31G(d) Freq
 --------------------------------------------------------------------

 Structure from the checkpoint file:  "/scratch/10462929.yak.local/Gau-12717.chk"
 ----------------------------------------------
 ./boats/3/glo_1w_beta_ts_boat3_B3LYP_631Gd.out
 ----------------------------------------------
 Charge =  0 Multiplicity = 1

                         Standard orientation:
 ---------------------------------------------------------------------
 Center     Atomic      Atomic             Coordinates (Angstroms)
 Number     Number       Type             X           Y           Z
 ---------------------------------------------------------------------
      1          6           0       -0.770992    0.572489   -0.153630
      2          6           0       -0.280309   -1.853860    0.064050
      3          8           0        1.446989   -0.284608   -0.790740
      4          6           0        1.168970   -1.330558    0.155500
      5          6           0        0.604887    0.892571   -0.756930
      6          6           0       -1.172961   -0.825942   -0.621880
      7          1           0        1.847111   -2.132898   -0.157780
      8          1           0       -1.026410   -0.903441   -1.707130
      9          1           0       -0.639219   -1.992791    1.094070
     10          1           0        0.447697    1.165821   -1.807810
     11          1           0       -0.696432    0.568399    0.943160
     12          6           0        1.281396    2.082252   -0.063650
     13          1           0        2.307575    2.188503   -0.433170
     14          1           0        1.338656    1.892582    1.020560
     15          8           0        1.403110   -0.917378    1.468420
     16          8           0        0.600144    3.288521   -0.361620
     17          1           0       -0.353096    3.081890   -0.355820
     18          8           0       -0.260077   -3.090730   -0.633270
     19          1           0       -1.181467   -3.391822   -0.688620
     20          8           0       -2.542730   -1.152143   -0.312160
     21          1           0       -3.091091   -0.670484   -0.954050
     22          8           0       -1.692594    1.577548   -0.568940
     23          1           0       -2.408404    1.582417    0.109370
     24          8           0        3.898238   -0.063875    0.587810
     25          1           0        2.350569   -0.652437    1.500780
     26          1           0        3.319928    0.005684   -0.198190
     27          1           0        4.597359   -0.686674    0.337480
     28          8           0       -3.515603    0.869035    1.378750
     29          1           0       -3.266552   -0.039514    1.108630
     30          1           0       -3.231983    0.952106    2.301750
 ---------------------------------------------------------------------

 SCF Done:  E(RB3LYP) =  -839.997852087     A.U. after    1 cycles

 The electronic state is 1-A.
 Alpha  occ. eigenvalues --  -19.18885 -19.17068 -19.17046 -19.16003 -19.15762
 Alpha  occ. eigenvalues --  -19.15687 -19.14865 -19.12392 -10.29276 -10.25190
 Alpha  occ. eigenvalues --  -10.24834 -10.24804 -10.24369 -10.22151  -1.07540
 Alpha  occ. eigenvalues --   -1.05964  -1.03452  -1.02595  -1.02304  -1.01617
 Alpha  occ. eigenvalues --   -1.00375  -0.99676  -0.79616  -0.76903  -0.68610
 Alpha  occ. eigenvalues --   -0.65293  -0.62548  -0.57893  -0.55898  -0.55602
 Alpha  occ. eigenvalues --   -0.54609  -0.53614  -0.52269  -0.51403  -0.49544
 Alpha  occ. eigenvalues --   -0.47335  -0.45796  -0.44642  -0.44144  -0.43221
 Alpha  occ. eigenvalues --   -0.41726  -0.40837  -0.39992  -0.39748  -0.38397
 Alpha  occ. eigenvalues --   -0.37871  -0.37046  -0.34722  -0.33688  -0.32751
 Alpha  occ. eigenvalues --   -0.32088  -0.31858  -0.30767  -0.29894  -0.28858
 Alpha  occ. eigenvalues --   -0.28125  -0.26185  -0.24807
 Alpha virt. eigenvalues --    0.03226   0.05343   0.06448   0.08117   0.08503
 Alpha virt. eigenvalues --    0.11863   0.12062   0.13088   0.13886   0.14666
 Alpha virt. eigenvalues --    0.15258   0.15598   0.16270   0.16792   0.18358

 Mulliken charges:
               1
     1  C    0.049171
     2  C    0.133300
     3  O   -0.544565
     4  C    0.301752
     5  C    0.121245
     6  C    0.083943
     7  H    0.150143
     8  H    0.151298
     9  H    0.149800
    10  H    0.157207
    11  H    0.139173
    12  C   -0.037809
    13  H    0.143123
    14  H    0.130073
    15  O   -0.648619
    16  O   -0.643378
    17  H    0.412241
    18  O   -0.641361
    19  H    0.402278
    20  O   -0.656351
    21  H    0.416114
    22  O   -0.682952
    23  H    0.437910
    24  O   -0.802122
    25  H    0.432506
    26  H    0.426236
    27  H    0.399712
    28  O   -0.804948
    29  H    0.419108
    30  H    0.405773
 Sum of Mulliken charges =  -0.00000

 Dipole moment (field-independent basis, Debye):
    X=             -1.2487    Y=             -3.1894    Z=              0.2765  Tot=              3.4363
 Quadrupole moment (field-independent basis, Debye-Ang):
   XX=            -72.7924   YY=            -97.0827   ZZ=            -80.8474
   XY=             -2.5572   XZ=             -3.7107   YZ=              3.1556

  Exact polarizability: 105.669  -0.702  97.273   0.554   0.089  79.889
 Approx polarizability: 134.224  -3.998 127.892  -0.254  -0.862 123.536

                      1                      2                      3
                      A                      A                      A
 Frequencies --     35.3561                66.5756                71.8660
 Red. masses --      6.0700                 5.5898                 5.5365
 Frc consts  --      0.0045                 0.0146                 0.0168
 IR Inten    --      2.1807                 1.2232                 6.1436

                      4                      5                      6
                      A                      A                      A
 Frequencies --     83.0936               111.3895               126.6861
 Red. masses --      5.9441                 6.1597                 3.7351
 Frc consts  --      0.0242                 0.0450                 0.0353
 IR Inten    --      0.5304                 2.9773                 7.2207

                      7                      8                      9
                      A                      A                      A
 Frequencies --    154.1569               175.1101               192.3169
 Red. masses --      4.0526                 5.5695                 6.8515
 Frc consts  --      0.0567                 0.1006                 0.1493
 IR Inten    --      5.4866                 5.2047                 5.5278

                     10                     11                     12
                      A                      A                      A
 Frequencies --    200.5099               223.8504               254.3687
 Red. masses --      4.9379                 3.0760                 2.7363
 Frc consts  --      0.1170                 0.0908                 0.1043
 IR Inten    --     13.4752                15.0237                45.4866

                     13                     14                     15
                      A                      A                      A
 Frequencies --    258.1189               261.5414               278.3562
 Red. masses --      2.9187                 1.4270                 2.5325
 Frc consts  --      0.1146                 0.0575                 0.1156
 IR Inten    --     34.6314               109.2903                75.9821

                     16                     17                     18
                      A                      A                      A
 Frequencies --    294.6793               333.0897               351.6234
 Red. masses --      1.8142                 1.2540                 1.4598
 Frc consts  --      0.0928                 0.0820                 0.1063
 IR Inten    --    101.8070                84.4914                62.9000

                     19                     20                     21
                      A                      A                      A
 Frequencies --    361.5241               372.6322               395.0007
 Red. masses --      1.8597                 2.2785                 2.2502
 Frc consts  --      0.1432                 0.1864                 0.2069
 IR Inten    --     36.9559                59.3084                52.8401

                     22                     23                     24
                      A                      A                      A
 Frequencies --    410.0028               447.9413               472.7123
 Red. masses --      4.1240                 3.3438                 5.7014
 Frc consts  --      0.4085                 0.3953                 0.7506
 IR Inten    --     17.4405                 5.2524                18.9600

                     25                     26                     27
                      A                      A                      A
 Frequencies --    501.7858               513.1784               536.4494
 Red. masses --      3.2413                 1.1887                 1.3012
 Frc consts  --      0.4808                 0.1844                 0.2206
 IR Inten    --     18.7342                49.4947                68.7828

                     28                     29                     30
                      A                      A                      A
 Frequencies --    546.0356               581.4075               616.1758
 Red. masses --      3.8222                 4.1098                 3.2033
 Frc consts  --      0.6714                 0.8185                 0.7166
 IR Inten    --     22.0156                13.6881                21.6769

                     31                     32                     33
                      A                      A                      A
 Frequencies --    667.0141               669.9126               758.5950
 Red. masses --      1.1174                 1.0843                 4.3627
 Frc consts  --      0.2929                 0.2867                 1.4792
 IR Inten    --    208.6258               310.8415                50.8727

                     34                     35                     36
                      A                      A                      A
 Frequencies --    821.9821               894.2943               905.0359
 Red. masses --      1.1629                 1.2014                 2.4055
 Frc consts  --      0.4629                 0.5661                 1.1609
 IR Inten    --    122.4953                72.4892                27.0312

                     37                     38                     39
                      A                      A                      A
 Frequencies --    927.1519               993.6391              1015.3274
 Red. masses --      1.9667                 3.0649                 5.2901
 Frc consts  --      0.9961                 1.7829                 3.2131
 IR Inten    --     59.0431                27.9483                47.6414

                     40                     41                     42
                      A                      A                      A
 Frequencies --   1053.6251              1056.7672              1090.4450
 Red. masses --      3.6332                 5.6026                 5.9494
 Frc consts  --      2.3764                 3.6864                 4.1681
 IR Inten    --    120.0974               159.7582                88.1787

                     43                     44                     45
                      A                      A                      A
 Frequencies --   1101.1979              1111.1271              1119.7392
 Red. masses --      2.5783                 3.0487                 2.7079
 Frc consts  --      1.8421                 2.2176                 2.0004
 IR Inten    --     25.2349                86.4071                61.9091

                     46                     47                     48
                      A                      A                      A
 Frequencies --   1130.1564              1150.0833              1166.4794
 Red. masses --      5.2069                 3.3000                 3.1182
 Frc consts  --      3.9184                 2.5717                 2.4998
 IR Inten    --     65.2963                12.8541                29.9075

                     49                     50                     51
                      A                      A                      A
 Frequencies --   1222.4143              1233.7760              1260.6519
 Red. masses --      1.2247                 1.1818                 1.1189
 Frc consts  --      1.0782                 1.0599                 1.0477
 IR Inten    --      3.5311                38.1246                39.4619

                     52                     53                     54
                      A                      A                      A
 Frequencies --   1297.7437              1319.3553              1329.0043
 Red. masses --      1.2632                 1.1817                 1.1935
 Frc consts  --      1.2534                 1.2119                 1.2420
 IR Inten    --     17.6916                49.5380                24.6222

                     55                     56                     57
                      A                      A                      A
 Frequencies --   1346.5606              1374.3701              1393.5792
 Red. masses --      1.1681                 1.3120                 1.2415
 Frc consts  --      1.2479                 1.4601                 1.4205
 IR Inten    --      0.3360                27.3263                 1.6215

                     58                     59                     60
                      A                      A                      A
 Frequencies --   1407.0254              1410.7937              1426.2175
 Red. masses --      1.2677                 1.2990                 1.3832
 Frc consts  --      1.4787                 1.5233                 1.6577
 IR Inten    --      5.0527                25.9587                42.0986

                     61                     62                     63
                      A                      A                      A
 Frequencies --   1442.4166              1455.5408              1484.1753
 Red. masses --      1.4402                 1.3341                 1.2643
 Frc consts  --      1.7654                 1.6653                 1.6409
 IR Inten    --     11.9118                 9.7247                26.1070

                     64                     65                     66
                      A                      A                      A
 Frequencies --   1494.3796              1515.1539              1548.5514
 Red. masses --      1.2930                 1.4748                 1.0962
 Frc consts  --      1.7013                 1.9948                 1.5487
 IR Inten    --    100.6111                52.5023                 0.1697

                     67                     68                     69
                      A                      A                      A
 Frequencies --   1712.6361              1720.7723              3003.3856
 Red. masses --      1.0776                 1.0752                 1.0701
 Frc consts  --      1.8622                 1.8758                 5.6873
 IR Inten    --     66.0141                45.7406                37.4975

                     70                     71                     72
                      A                      A                      A
 Frequencies --   3028.5468              3031.8983              3055.6145
 Red. masses --      1.0837                 1.0826                 1.0860
 Frc consts  --      5.8565                 5.8631                 5.9742
 IR Inten    --      4.1560                16.4428                20.1349

                     73                     74                     75
                      A                      A                      A
 Frequencies --   3065.2927              3073.5185              3089.9301
 Red. masses --      1.0847                 1.0872                 1.0955
 Frc consts  --      6.0049                 6.0510                 6.1626
 IR Inten    --     54.4679                38.8757                48.3362

                     76                     77                     78
                      A                      A                      A
 Frequencies --   3460.5944              3506.9852              3588.5437
 Red. masses --      1.0667                 1.0653                 1.0561
 Frc consts  --      7.5263                 7.7197                 8.0128
 IR Inten    --    437.9965               248.9761               318.0469

                     79                     80                     81
                      A                      A                      A
 Frequencies --   3617.6600              3651.1521              3729.8007
 Red. masses --      1.0543                 1.0663                 1.0659
 Frc consts  --      8.1299                 8.3747                 8.7364
 IR Inten    --    274.4192               105.0585                39.9407

                     82                     83                     84
                      A                      A                      A
 Frequencies --   3738.5036              3805.6538              3806.2914
 Red. masses --      1.0658                 1.0725                 1.0739
 Frc consts  --      8.7768                 9.1516                 9.1670
 IR Inten    --     27.6917                80.3670                76.8326

 - Thermochemistry -
 -------------------
 Temperature   298.150 Kelvin.  Pressure   1.00000 Atm.
 Atom     1 has atomic number  6 and mass  12.00000

 Molecular mass:   216.08452 amu.
 Principal axes and moments of inertia in atomic units:
                           1         2         3
     Eigenvalues --  2583.139823370.692425040.06041
           X            0.99999  -0.00208  -0.00483
           Y            0.00210   0.99999   0.00448
           Z            0.00482  -0.00449   0.99998
 This molecule is an asymmetric top.
 Rotational symmetry number  1.
 Warning -- assumption of classical behavior for rotation
           may cause significant error
 Rotational temperatures (Kelvin)      0.03353     0.02570     0.01719
 Rotational constants (GHZ):           0.69866     0.53542     0.35808
 Zero-point vibrational energy     655006.9 (Joules/Mol)
                                  156.55040 (Kcal/Mol)
 Warning -- explicit consideration of  30 degrees of freedom as
           vibrations may cause significant error
 Vibrational temperatures:     50.87    95.79   103.40   119.55   160.26
          (Kelvin)            182.27   221.80   251.94   276.70   288.49
                              322.07   365.98   371.38   376.30   400.49
                              423.98   479.24   505.91   520.15   536.13
                              568.32   589.90   644.49   680.13   721.96
                              738.35   771.83   785.62   836.51   886.54
                              959.68   963.85  1091.45  1182.65  1286.69
                             1302.14  1333.96  1429.62  1460.83  1515.93
                             1520.45  1568.91  1584.38  1598.66  1611.05
                             1626.04  1654.71  1678.30  1758.78  1775.13
                             1813.79  1867.16  1898.26  1912.14  1937.40
                             1977.41  2005.05  2024.39  2029.81  2052.01
                             2075.31  2094.20  2135.39  2150.08  2179.97
                             2228.02  2464.10  2475.80  4321.20  4357.40
                             4362.22  4396.34  4410.27  4422.10  4445.71
                             4979.02  5045.76  5163.11  5205.00  5253.19
                             5366.34  5378.87  5475.48  5476.40

 Zero-point correction=                           0.249479 (Hartree/Particle)
 Thermal correction to Energy=                    0.266848
 Thermal correction to Enthalpy=                  0.267792
 Thermal correction to Gibbs Free Energy=         0.205390
 Sum of electronic and zero-point Energies=           -839.748373
 Sum of electronic and thermal Energies=              -839.731004
 Sum of electronic and thermal Enthalpies=            -839.730060
 Sum of electronic and thermal Free Energies=         -839.792462

                     E (Thermal)             CV                S
                      KCal/Mol        Cal/Mol-Kelvin    Cal/Mol-Kelvin
 Total                  167.449             64.290            131.337
 Electronic               0.000              0.000              0.000
 Translational            0.889              2.981             42.015
 Rotational               0.889              2.981             32.151
 Vibrational            165.672             58.328             57.171
 Vibration     1          0.594              1.982              5.504
 Vibration     2          0.598              1.970              4.252
 Vibration     3          0.598              1.967              4.102
 Vibration     4          0.600              1.961              3.816
 Vibration     5          0.607              1.940              3.245
 Vibration     6          0.611              1.926              2.996
 Vibration     7          0.620              1.898              2.620
 Vibration     8          0.627              1.873              2.380
 Vibration     9          0.634              1.851              2.205
 Vibration    10          0.638              1.839              2.128
 Vibration    11          0.649              1.805              1.928
 Vibration    12          0.665              1.755              1.700
 Vibration    13          0.667              1.749              1.674
 Vibration    14          0.669              1.743              1.651
 Vibration    15          0.679              1.714              1.544
 Vibration    16          0.689              1.684              1.447
 Vibration    17          0.715              1.609              1.245
 Vibration    18          0.728              1.572              1.159
 Vibration    19          0.736              1.552              1.116
 Vibration    20          0.744              1.528              1.069
 Vibration    21          0.762              1.481              0.981
 Vibration    22          0.774              1.449              0.927
 Vibration    23          0.807              1.365              0.802
 Vibration    24          0.830              1.311              0.730
 Vibration    25          0.857              1.246              0.654
 Vibration    26          0.868              1.221              0.626
 Vibration    27          0.891              1.169              0.573
 Vibration    28          0.901              1.148              0.552
 Vibration    29          0.938              1.072              0.483
 Vibration    30          0.976              0.998              0.423

 Normal termination of Gaussian 09 at Sun Jan 15 12:06:45 2017.
