 Gaussian 09, Revision E.01,
 Gaussian 09:  ES64L-G09RevE.01 30-Nov-2015

 -----------------------------------------
 # opt=(MaxCycle=1000) freq B3LYP/6-31G(d)
 -----------------------------------------

 ----------------------------------------------
 ./boats/3/glo_2w_beta_ts_boat3_B3LYP_631Gd.out
 ----------------------------------------------
 Symbolic Z-matrix:
 Charge =  0 Multiplicity = 1

 SCF Done:  E(RB3LYP) =  -839.967875388     A.U. after   14 cycles
 SCF Done:  E(RB3LYP) =  -839.795100549     A.U. after   14 cycles
 SCF Done:  E(RB3LYP) =  -839.973079213     A.U. after   12 cycles
 SCF Done:  E(RB3LYP) =  -839.977891336     A.U. after   12 cycles
 SCF Done:  E(RB3LYP) =  -839.978735108     A.U. after   12 cycles
 SCF Done:  E(RB3LYP) =  -839.979841884     A.U. after   12 cycles
 SCF Done:  E(RB3LYP) =  -839.984323102     A.U. after   12 cycles
 SCF Done:  E(RB3LYP) =  -839.988042170     A.U. after   11 cycles
 SCF Done:  E(RB3LYP) =  -839.990552530     A.U. after   11 cycles
 SCF Done:  E(RB3LYP) =  -839.991212294     A.U. after   11 cycles
 SCF Done:  E(RB3LYP) =  -839.993846345     A.U. after    7 cycles
 SCF Done:  E(RB3LYP) =  -839.993848108     A.U. after    8 cycles
 SCF Done:  E(RB3LYP) =  -839.993848900     A.U. after    8 cycles
 SCF Done:  E(RB3LYP) =  -839.993849577     A.U. after    7 cycles
 SCF Done:  E(RB3LYP) =  -839.993850018     A.U. after    8 cycles
 SCF Done:  E(RB3LYP) =  -839.993850240     A.U. after    7 cycles
 SCF Done:  E(RB3LYP) =  -839.993850433     A.U. after    7 cycles
 SCF Done:  E(RB3LYP) =  -839.993850514     A.U. after    7 cycles
 SCF Done:  E(RB3LYP) =  -839.993850684     A.U. after    7 cycles
 Optimization completed.
    -- Stationary point found.
 Normal termination of Gaussian 09 at Sun Jan 15 14:35:09 2017.

 --------------------------------------------------------------------
 #N Geom=AllCheck Guess=TCheck SCRF=Check GenChk RB3LYP/6-31G(d) Freq
 --------------------------------------------------------------------

 Structure from the checkpoint file:  "/scratch/10462927.yak.local/Gau-14357.chk"
 ----------------------------------------------
 ./boats/3/glo_2w_beta_ts_boat3_B3LYP_631Gd.out
 ----------------------------------------------
 Charge =  0 Multiplicity = 1

                         Standard orientation:
 ---------------------------------------------------------------------
 Center     Atomic      Atomic             Coordinates (Angstroms)
 Number     Number       Type             X           Y           Z
 ---------------------------------------------------------------------
      1          6           0        1.239574    0.183671    0.895869
      2          6           0       -0.424435    1.722060   -0.201927
      3          8           0       -0.089928   -0.612487   -1.000150
      4          6           0       -0.778271    0.664251   -1.287986
      5          6           0        1.242591   -0.401274   -0.537196
      6          6           0       -0.006931    1.066589    1.127589
      7          1           0       -0.381404    1.016768   -2.246794
      8          1           0        0.290073    1.863549    1.819147
      9          1           0       -1.317433    2.337245   -0.043662
     10          1           0        1.729452    0.336232   -1.192425
     11          1           0        1.218421   -0.628459    1.638349
     12          6           0        2.020926   -1.710507   -0.624807
     13          1           0        1.984876   -2.116145   -1.643799
     14          1           0        1.587374   -2.454959    0.052325
     15          8           0       -2.109880    0.395907   -1.463351
     16          8           0        3.369562   -1.505011   -0.182646
     17          1           0        3.878448   -1.169297   -0.937007
     18          8           0        0.623245    2.564065   -0.688280
     19          1           0        1.417978    2.415660   -0.145546
     20          8           0       -1.074229    0.380429    1.750238
     21          1           0       -1.138645   -0.537017    1.424504
     22          8           0        2.400173    0.995898    1.090521
     23          1           0        3.158538    0.411331    0.907300
     24          8           0       -1.661113   -2.189307    0.571070
     25          1           0       -3.306422   -1.274849    0.639417
     26          1           0       -1.163023   -1.833576   -0.201785
     27          1           0       -1.326514   -3.081367    0.742907
     28          8           0       -3.876435   -0.513783    0.407108
     29          1           0       -4.441520   -0.848798   -0.306527
     30          1           0       -2.602074    0.289263   -0.611744
 ---------------------------------------------------------------------

 SCF Done:  E(RB3LYP) =  -839.993850684     A.U. after    1 cycles

 The electronic state is 1-A.
 Alpha  occ. eigenvalues --  -19.18625 -19.17775 -19.17342 -19.16220 -19.14503
 Alpha  occ. eigenvalues --  -19.13973 -19.13777 -19.13387 -10.28225 -10.26087
 Alpha  occ. eigenvalues --  -10.25234 -10.24658 -10.23671 -10.22962  -1.07209
 Alpha  occ. eigenvalues --   -1.05387  -1.03554  -1.03411  -1.01271  -1.00978
 Alpha  occ. eigenvalues --   -1.00500  -0.99761  -0.78277  -0.75647  -0.70005
 Alpha  occ. eigenvalues --   -0.65057  -0.63726  -0.59121  -0.55989  -0.54971
 Alpha  occ. eigenvalues --   -0.54612  -0.52360  -0.51925  -0.50871  -0.50360
 Alpha  occ. eigenvalues --   -0.48391  -0.45973  -0.45504  -0.43982  -0.42496
 Alpha  occ. eigenvalues --   -0.41694  -0.40917  -0.40330  -0.38981  -0.37910
 Alpha  occ. eigenvalues --   -0.36668  -0.36106  -0.34710  -0.34444  -0.33872
 Alpha  occ. eigenvalues --   -0.31912  -0.30698  -0.30431  -0.29852  -0.28841
 Alpha  occ. eigenvalues --   -0.27006  -0.26063  -0.24734
 Alpha virt. eigenvalues --    0.02537   0.03872   0.07519   0.08254   0.09592
 Alpha virt. eigenvalues --    0.11364   0.11861   0.12720   0.12854   0.14603
 Alpha virt. eigenvalues --    0.15061   0.16368   0.16816   0.18189   0.18932

 Mulliken charges:
               1
     1  C    0.066294
     2  C    0.069633
     3  O   -0.559381
     4  C    0.345024
     5  C    0.118559
     6  C    0.097786
     7  H    0.150876
     8  H    0.162325
     9  H    0.157981
    10  H    0.135951
    11  H    0.134857
    12  C   -0.074921
    13  H    0.153872
    14  H    0.145821
    15  O   -0.653900
    16  O   -0.617508
    17  H    0.405802
    18  O   -0.660915
    19  H    0.416428
    20  O   -0.663511
    21  H    0.421844
    22  O   -0.648832
    23  H    0.406160
    24  O   -0.820347
    25  H    0.432557
    26  H    0.436077
    27  H    0.408075
    28  O   -0.793421
    29  H    0.395512
    30  H    0.431303
 Sum of Mulliken charges =  -0.00000

 Dipole moment (field-independent basis, Debye):
    X=              2.9813    Y=             -5.1358    Z=             -1.8111  Tot=              6.2084
 Quadrupole moment (field-independent basis, Debye-Ang):
   XX=            -77.6604   YY=            -79.3132   ZZ=            -89.8619
   XY=              5.1051   XZ=             -2.4858   YZ=              1.3334

  Exact polarizability: 107.405   0.071  93.301  -0.338  -1.660  81.539
 Approx polarizability: 141.477   4.602 128.326  -0.817  -5.042 118.349

                      1                      2                      3
                      A                      A                      A
 Frequencies --     29.3623                62.5184                70.7315
 Red. masses --      6.7800                 5.3527                 5.7959
 Frc consts  --      0.0034                 0.0123                 0.0171
 IR Inten    --      2.7084                 2.7876                 2.4101

                      4                      5                      6
                      A                      A                      A
 Frequencies --     82.0774               110.4299               145.5663
 Red. masses --      7.1284                 4.1462                 3.2296
 Frc consts  --      0.0283                 0.0298                 0.0403
 IR Inten    --     14.1406                 7.2371                17.0933

                      7                      8                      9
                      A                      A                      A
 Frequencies --    152.6829               155.3779               173.7271
 Red. masses --      3.2725                 1.6120                 5.8962
 Frc consts  --      0.0449                 0.0229                 0.1048
 IR Inten    --     14.0810                44.4874                 1.9539

                     10                     11                     12
                      A                      A                      A
 Frequencies --    198.1513               217.3170               236.5504
 Red. masses --      4.7756                 4.1065                 4.4253
 Frc consts  --      0.1105                 0.1143                 0.1459
 IR Inten    --     12.3435                13.3957                 5.8099

                     13                     14                     15
                      A                      A                      A
 Frequencies --    246.5869               263.5992               281.6126
 Red. masses --      3.5975                 3.5678                 1.2910
 Frc consts  --      0.1289                 0.1461                 0.0603
 IR Inten    --     13.3995                 4.0596               100.8164

                     16                     17                     18
                      A                      A                      A
 Frequencies --    303.6976               314.3674               346.5143
 Red. masses --      2.2226                 1.6102                 4.1368
 Frc consts  --      0.1208                 0.0938                 0.2927
 IR Inten    --     63.4289                60.9356                95.3273

                     19                     20                     21
                      A                      A                      A
 Frequencies --    367.2719               389.9023               403.0117
 Red. masses --      3.5939                 2.4837                 1.6911
 Frc consts  --      0.2856                 0.2225                 0.1618
 IR Inten    --     20.5302                20.4397                46.5801

                     22                     23                     24
                      A                      A                      A
 Frequencies --    433.9960               447.5093               451.6180
 Red. masses --      1.4250                 3.3455                 1.5610
 Frc consts  --      0.1581                 0.3947                 0.1876
 IR Inten    --     83.3783                 5.9118                92.2400

                     25                     26                     27
                      A                      A                      A
 Frequencies --    470.9454               513.3515               532.6746
 Red. masses --      2.3925                 4.2181                 3.8269
 Frc consts  --      0.3126                 0.6549                 0.6398
 IR Inten    --      4.4777                36.9774                 3.2944

                     28                     29                     30
                      A                      A                      A
 Frequencies --    571.5358               585.0210               597.0596
 Red. masses --      3.6656                 1.1730                 1.1599
 Frc consts  --      0.7055                 0.2365                 0.2436
 IR Inten    --      4.8236               194.9136               181.7144

                     31                     32                     33
                      A                      A                      A
 Frequencies --    661.1314               678.2897               716.0676
 Red. masses --      2.7636                 1.1436                 1.2949
 Frc consts  --      0.7117                 0.3100                 0.3912
 IR Inten    --     26.4968               194.6504               107.8668

                     34                     35                     36
                      A                      A                      A
 Frequencies --    797.3229               857.7366               885.2673
 Red. masses --      3.7167                 3.0076                 2.3656
 Frc consts  --      1.3921                 1.3037                 1.0923
 IR Inten    --     69.9170                25.3788                49.2814

                     37                     38                     39
                      A                      A                      A
 Frequencies --    927.6862               935.2916              1005.0631
 Red. masses --      1.2499                 2.0750                 2.4715
 Frc consts  --      0.6337                 1.0695                 1.4710
 IR Inten    --    127.0049                41.0785                85.1704

                     40                     41                     42
                      A                      A                      A
 Frequencies --   1043.4537              1069.7008              1082.2577
 Red. masses --      4.5255                 5.1189                 2.3791
 Frc consts  --      2.9031                 3.4511                 1.6418
 IR Inten    --    101.2504                61.4163                11.0186

                     43                     44                     45
                      A                      A                      A
 Frequencies --   1084.6376              1100.0862              1113.2904
 Red. masses --      5.6529                 3.6082                 2.8753
 Frc consts  --      3.9182                 2.5727                 2.0997
 IR Inten    --    290.2805                 5.7476                21.2432

                     46                     47                     48
                      A                      A                      A
 Frequencies --   1130.6816              1140.3326              1178.3629
 Red. masses --      2.9528                 2.5417                 1.4597
 Frc consts  --      2.2242                 1.9473                 1.1942
 IR Inten    --     15.6822                 7.3296                 8.7291

                     49                     50                     51
                      A                      A                      A
 Frequencies --   1222.4593              1253.3827              1263.1343
 Red. masses --      2.3267                 1.2908                 1.2546
 Frc consts  --      2.0486                 1.1948                 1.1793
 IR Inten    --    158.6041                11.6759                41.4026

                     52                     53                     54
                      A                      A                      A
 Frequencies --   1321.6496              1337.5998              1339.9992
 Red. masses --      1.2820                 1.2677                 1.2592
 Frc consts  --      1.3194                 1.3363                 1.3322
 IR Inten    --      6.3203                41.9486                12.9152

                     55                     56                     57
                      A                      A                      A
 Frequencies --   1348.0723              1362.1283              1397.7647
 Red. masses --      1.2728                 1.1693                 1.2343
 Frc consts  --      1.3628                 1.2782                 1.4209
 IR Inten    --      5.6414                 7.5693                31.0615

                     58                     59                     60
                      A                      A                      A
 Frequencies --   1402.9389              1412.5196              1418.3389
 Red. masses --      1.3191                 1.2871                 1.3782
 Frc consts  --      1.5296                 1.5130                 1.6335
 IR Inten    --      0.2280                15.0982                43.3133

                     61                     62                     63
                      A                      A                      A
 Frequencies --   1428.1618              1442.5423              1453.8997
 Red. masses --      1.3931                 1.2805                 1.2941
 Frc consts  --      1.6741                 1.5699                 1.6117
 IR Inten    --      6.1293                32.4594                37.2163

                     64                     65                     66
                      A                      A                      A
 Frequencies --   1461.0797              1471.4030              1535.1536
 Red. masses --      1.3312                 1.3509                 1.0861
 Frc consts  --      1.6743                 1.7231                 1.5081
 IR Inten    --     93.5232               131.6437                 1.1581

                     67                     68                     69
                      A                      A                      A
 Frequencies --   1703.4711              1728.2529              3012.3939
 Red. masses --      1.0765                 1.0775                 1.0836
 Frc consts  --      1.8405                 1.8962                 5.7933
 IR Inten    --     84.1758                31.1563                19.7591

                     70                     71                     72
                      A                      A                      A
 Frequencies --   3025.3959              3050.5013              3071.3152
 Red. masses --      1.0851                 1.0592                 1.0856
 Frc consts  --      5.8520                 5.8074                 6.0334
 IR Inten    --     33.3268                41.7576                27.8633

                     73                     74                     75
                      A                      A                      A
 Frequencies --   3076.1025              3080.5512              3103.9352
 Red. masses --      1.0878                 1.0879                 1.1081
 Frc consts  --      6.0645                 6.0824                 6.2902
 IR Inten    --     51.8619                28.3547                38.6495

                     76                     77                     78
                      A                      A                      A
 Frequencies --   3403.3128              3475.9760              3611.3628
 Red. masses --      1.0692                 1.0605                 1.0567
 Frc consts  --      7.2965                 7.5495                 8.1200
 IR Inten    --    331.8385               573.8345               190.0122

                     79                     80                     81
                      A                      A                      A
 Frequencies --   3652.3074              3671.2574              3682.9765
 Red. masses --      1.0639                 1.0666                 1.0666
 Frc consts  --      8.3618                 8.4697                 8.5238
 IR Inten    --    346.4534               143.2243                25.0630

                     82                     83                     84
                      A                      A                      A
 Frequencies --   3749.0876              3794.5677              3813.3843
 Red. masses --      1.0666                 1.0734                 1.0699
 Frc consts  --      8.8332                 9.1064                 9.1669
 IR Inten    --     29.4431                72.3829                69.9712

 - Thermochemistry -
 -------------------
 Temperature   298.150 Kelvin.  Pressure   1.00000 Atm.
 Atom     1 has atomic number  6 and mass  12.00000

 Molecular mass:   216.08452 amu.
 Principal axes and moments of inertia in atomic units:
                           1         2         3
     Eigenvalues --  2118.592963714.994504346.59193
           X            0.99995   0.00685  -0.00684
           Y           -0.00683   0.99997   0.00336
           Z            0.00686  -0.00332   0.99997
 This molecule is an asymmetric top.
 Rotational symmetry number  1.
 Warning -- assumption of classical behavior for rotation
           may cause significant error
 Rotational temperatures (Kelvin)      0.04088     0.02331     0.01993
 Rotational constants (GHZ):           0.85186     0.48580     0.41521
 Zero-point vibrational energy     652801.0 (Joules/Mol)
                                  156.02318 (Kcal/Mol)
 Warning -- explicit consideration of  30 degrees of freedom as
           vibrations may cause significant error
 Vibrational temperatures:     42.25    89.95   101.77   118.09   158.88
          (Kelvin)            209.44   219.68   223.55   249.95   285.10
                              312.67   340.34   354.78   379.26   405.18
                              436.95   452.30   498.56   528.42   560.98
                              579.84   624.42   643.87   649.78   677.58
                              738.60   766.40   822.31   841.71   859.03
                              951.22   975.91  1030.26  1147.17  1234.09
                             1273.70  1334.73  1345.67  1446.06  1501.30
                             1539.06  1557.13  1560.55  1582.78  1601.77
                             1626.80  1640.68  1695.40  1758.84  1803.34
                             1817.37  1901.56  1924.51  1927.96  1939.57
                             1959.80  2011.07  2018.51  2032.30  2040.67
                             2054.80  2075.49  2091.83  2102.17  2117.02
                             2208.74  2450.91  2486.57  4334.16  4352.86
                             4388.99  4418.93  4425.82  4432.22  4465.86
                             4896.60  5001.15  5195.94  5254.85  5282.11
                             5298.98  5394.09  5459.53  5486.60

 Zero-point correction=                           0.248639 (Hartree/Particle)
 Thermal correction to Energy=                    0.266162
 Thermal correction to Enthalpy=                  0.267106
 Thermal correction to Gibbs Free Energy=         0.204297
 Sum of electronic and zero-point Energies=           -839.745212
 Sum of electronic and thermal Energies=              -839.727688
 Sum of electronic and thermal Enthalpies=            -839.726744
 Sum of electronic and thermal Free Energies=         -839.789554

                     E (Thermal)             CV                S
                      KCal/Mol        Cal/Mol-Kelvin    Cal/Mol-Kelvin
 Total                  167.019             64.707            132.194
 Electronic               0.000              0.000              0.000
 Translational            0.889              2.981             42.015
 Rotational               0.889              2.981             31.904
 Vibrational            165.242             58.746             58.275
 Vibration     1          0.593              1.984              5.872
 Vibration     2          0.597              1.972              4.376
 Vibration     3          0.598              1.968              4.133
 Vibration     4          0.600              1.961              3.841
 Vibration     5          0.606              1.941              3.261
 Vibration     6          0.617              1.907              2.729
 Vibration     7          0.619              1.900              2.639
 Vibration     8          0.620              1.897              2.605
 Vibration     9          0.627              1.875              2.395
 Vibration    10          0.637              1.842              2.150
 Vibration    11          0.646              1.815              1.981
 Vibration    12          0.655              1.785              1.829
 Vibration    13          0.661              1.768              1.755
 Vibration    14          0.670              1.740              1.638
 Vibration    15          0.681              1.708              1.524
 Vibration    16          0.695              1.667              1.396
 Vibration    17          0.702              1.646              1.339
 Vibration    18          0.725              1.582              1.182
 Vibration    19          0.740              1.540              1.091
 Vibration    20          0.758              1.492              1.001
 Vibration    21          0.768              1.464              0.952
 Vibration    22          0.795              1.396              0.846
 Vibration    23          0.807              1.366              0.803
 Vibration    24          0.810              1.357              0.791
 Vibration    25          0.828              1.315              0.735
 Vibration    26          0.868              1.220              0.626
 Vibration    27          0.888              1.178              0.581
 Vibration    28          0.928              1.093              0.501
 Vibration    29          0.942              1.064              0.476
 Vibration    30          0.955              1.038              0.455

 Normal termination of Gaussian 09 at Sun Jan 15 14:54:06 2017.
