 Gaussian 09, Revision E.01,
 Gaussian 09:  ES64L-G09RevE.01 30-Nov-2015

 ----------------------------------------------------------------------
 # opt=(calcfc,ts,noeigentest,maxcycle=1000,cartesian) b3lyp 6-31g(d) f
 req
 ----------------------------------------------------------------------

 -------------------------------------------
 ./4/glo_2w_alpha_boat4_b3lyp_631Gd_iopt.out
 -------------------------------------------
 Symbolic Z-matrix:
 Charge =  0 Multiplicity = 1

 SCF Done:  E(RB3LYP) =  -839.998064132     A.U. after   14 cycles
 Optimization completed.
    -- Stationary point found.
 Normal termination of Gaussian 09 at Tue Jan 31 06:45:32 2017.

 --------------------------------------------------------------------
 #N Geom=AllCheck Guess=TCheck SCRF=Check GenChk RB3LYP/6-31G(d) Freq
 --------------------------------------------------------------------

 Structure from the checkpoint file:  "/scratch/10501383.yak.local/Gau-7549.chk"
 -------------------------------------------
 ./4/glo_2w_alpha_boat4_b3lyp_631Gd_iopt.out
 -------------------------------------------
 Charge =  0 Multiplicity = 1

                         Standard orientation:
 ---------------------------------------------------------------------
 Center     Atomic      Atomic             Coordinates (Angstroms)
 Number     Number       Type             X           Y           Z
 ---------------------------------------------------------------------
      1          8           0       -0.592580    0.622340    0.006980
      2          6           0        1.769130   -0.103001   -0.140130
      3          6           0       -0.127521   -1.756880   -0.404750
      4          6           0        1.244569   -1.488691    0.233870
      5          6           0       -0.766580   -0.457280   -0.940840
      6          6           0        0.771830    0.990730    0.280130
      7          1           0        1.107639   -1.516461    1.325940
      8          1           0        0.852550    1.097700    1.370300
      9          1           0        1.921910   -0.073021   -1.231360
     10          6           0        1.070011    2.339039   -0.387450
     11          1           0        0.996741    2.240550   -1.475200
     12          1           0        0.336671    3.090610   -0.068910
     13          1           0        0.017279   -2.443640   -1.252250
     14          8           0        2.413121    2.767779   -0.119490
     15          1           0        2.434501    3.129669    0.780690
     16          8           0       -0.981191   -2.328750    0.575300
     17          1           0       -1.868681   -2.280379    0.175820
     18          8           0        2.160579   -2.485671   -0.186710
     19          1           0        3.029039   -2.200261    0.145460
     20          8           0        3.015680    0.068539    0.520980
     21          1           0        3.335880    0.949808    0.252730
     22          1           0       -0.297530   -0.149770   -1.889480
     23          8           0       -2.118651   -0.695489   -1.090400
     24          1           0       -2.643470    0.152201   -1.096660
     25          8           0       -3.731640    1.371102   -0.539150
     26          1           0       -3.537690    1.156112    0.408920
     27          1           0       -4.649470    1.091772   -0.676950
     28          8           0       -2.685760    0.495541    1.843970
     29          1           0       -1.831840    0.551371    1.361950
     30          1           0       -2.808620   -0.462899    1.932180
 ---------------------------------------------------------------------

 SCF Done:  E(RB3LYP) =  -839.998064132     A.U. after    1 cycles

 The electronic state is 1-A.
 Alpha  occ. eigenvalues --  -19.18268 -19.17895 -19.15566 -19.15261 -19.14961
 Alpha  occ. eigenvalues --  -19.14887 -19.14306 -19.14056 -10.29620 -10.25673
 Alpha  occ. eigenvalues --  -10.25374 -10.24697 -10.23752 -10.23731  -1.08246
 Alpha  occ. eigenvalues --   -1.05217  -1.03628  -1.02364  -1.01452  -1.00982
 Alpha  occ. eigenvalues --   -1.00488  -0.99607  -0.78708  -0.77114  -0.69932
 Alpha  occ. eigenvalues --   -0.65407  -0.63531  -0.56808  -0.55275  -0.54739
 Alpha  occ. eigenvalues --   -0.53533  -0.53219  -0.52148  -0.51021  -0.50726
 Alpha  occ. eigenvalues --   -0.50245  -0.46411  -0.45116  -0.43873  -0.42642
 Alpha  occ. eigenvalues --   -0.41979  -0.40811  -0.40079  -0.38425  -0.37672
 Alpha  occ. eigenvalues --   -0.36848  -0.36508  -0.35938  -0.34298  -0.33407
 Alpha  occ. eigenvalues --   -0.31802  -0.30817  -0.30141  -0.29825  -0.27944
 Alpha  occ. eigenvalues --   -0.27837  -0.27274  -0.25155
 Alpha virt. eigenvalues --    0.03583   0.05391   0.07428   0.08044   0.09059
 Alpha virt. eigenvalues --    0.09952   0.11962   0.13016   0.13132   0.13850
 Alpha virt. eigenvalues --    0.15123   0.15607   0.16449   0.17540   0.17956

 Mulliken charges:
               1
     1  O   -0.549315
     2  C    0.077153
     3  C    0.105965
     4  C    0.143535
     5  C    0.354704
     6  C    0.108965
     7  H    0.145063
     8  H    0.141330
     9  H    0.126736
    10  C   -0.065935
    11  H    0.162762
    12  H    0.157748
    13  H    0.149410
    14  O   -0.619295
    15  H    0.405806
    16  O   -0.650869
    17  H    0.406884
    18  O   -0.644754
    19  H    0.408048
    20  O   -0.667040
    21  H    0.413253
    22  H    0.120909
    23  O   -0.697160
    24  H    0.439621
    25  O   -0.812528
    26  H    0.427233
    27  H    0.395154
    28  O   -0.812981
    29  H    0.434131
    30  H    0.395467
 Sum of Mulliken charges =   0.00000

 Dipole moment (field-independent basis, Debye):
    X=             -0.4446    Y=              2.4857    Z=             -0.0523  Tot=              2.5257
 Quadrupole moment (field-independent basis, Debye-Ang):
   XX=            -74.0875   YY=            -89.5448   ZZ=            -84.8063
   XY=              9.2628   XZ=              3.7072   YZ=              2.9840

  Exact polarizability: 108.680   1.209  94.593   2.780   1.244  80.403
 Approx polarizability: 139.722   2.051 122.838   2.619   2.439 122.323

 ******    1 imaginary frequencies (negative Signs) ******

                      1                      2                      3
                      A                      A                      A
 Frequencies --    -34.1241                34.9768                63.9909
 Red. masses --      5.8368                 5.7084                 5.5174
 Frc consts  --      0.0040                 0.0041                 0.0133
 IR Inten    --      4.6212                 4.9605                 4.6790

                      4                      5                      6
                      A                      A                      A
 Frequencies --     75.0158                86.9913               130.4320
 Red. masses --      5.8689                 6.1882                 4.2985
 Frc consts  --      0.0195                 0.0276                 0.0431
 IR Inten    --      3.7081                 2.5867                 5.8635

                      7                      8                      9
                      A                      A                      A
 Frequencies --    149.9284               174.3336               198.7395
 Red. masses --      3.2663                 3.9652                 5.9919
 Frc consts  --      0.0433                 0.0710                 0.1394
 IR Inten    --      7.2833                21.1908                14.9161

                     10                     11                     12
                      A                      A                      A
 Frequencies --    234.0285               246.1627               255.7800
 Red. masses --      3.5954                 1.7310                 3.1623
 Frc consts  --      0.1160                 0.0618                 0.1219
 IR Inten    --      6.5503                21.7768                28.7928

                     13                     14                     15
                      A                      A                      A
 Frequencies --    273.6791               278.6583               294.1351
 Red. masses --      4.2514                 3.8974                 2.5473
 Frc consts  --      0.1876                 0.1783                 0.1298
 IR Inten    --      9.1199                20.9688                49.7871

                     16                     17                     18
                      A                      A                      A
 Frequencies --    318.0787               325.1317               336.4750
 Red. masses --      1.1460                 1.2798                 2.0920
 Frc consts  --      0.0683                 0.0797                 0.1395
 IR Inten    --    120.3534                38.3791                 4.2682

                     19                     20                     21
                      A                      A                      A
 Frequencies --    351.2327               378.8795               410.9255
 Red. masses --      3.4126                 4.0053                 2.4274
 Frc consts  --      0.2480                 0.3388                 0.2415
 IR Inten    --     39.3116                15.4530                87.8942

                     22                     23                     24
                      A                      A                      A
 Frequencies --    414.0589               447.0681               456.2298
 Red. masses --      4.6311                 1.3580                 3.2843
 Frc consts  --      0.4678                 0.1599                 0.4028
 IR Inten    --     30.3449                70.2369                53.5892

                     25                     26                     27
                      A                      A                      A
 Frequencies --    492.6518               497.0356               540.0807
 Red. masses --      3.8845                 1.3086                 1.4416
 Frc consts  --      0.5555                 0.1905                 0.2477
 IR Inten    --     52.3084               164.3198               106.7429

                     28                     29                     30
                      A                      A                      A
 Frequencies --    544.0317               603.8638               615.9225
 Red. masses --      2.1074                 2.9255                 1.1028
 Frc consts  --      0.3675                 0.6285                 0.2465
 IR Inten    --     47.2954                59.2449                85.1806

                     31                     32                     33
                      A                      A                      A
 Frequencies --    695.7630               705.9782               776.6952
 Red. masses --      4.2027                 1.1533                 1.2838
 Frc consts  --      1.1987                 0.3387                 0.4563
 IR Inten    --     39.6020               177.3644               150.5344

                     34                     35                     36
                      A                      A                      A
 Frequencies --    794.6632               852.1964               905.5679
 Red. masses --      2.9066                 3.6194                 1.7135
 Frc consts  --      1.0814                 1.5487                 0.8279
 IR Inten    --     94.0580                53.7139                 7.2526

                     37                     38                     39
                      A                      A                      A
 Frequencies --    996.6544              1010.4707              1027.5129
 Red. masses --      3.4428                 2.1565                 1.8113
 Frc consts  --      2.0149                 1.2973                 1.1267
 IR Inten    --     53.5198                 5.6615                52.8978

                     40                     41                     42
                      A                      A                      A
 Frequencies --   1041.6919              1057.6130              1070.7519
 Red. masses --      3.6063                 3.5235                 2.4337
 Frc consts  --      2.3056                 2.3221                 1.6439
 IR Inten    --     50.6128               124.5464                14.5538

                     43                     44                     45
                      A                      A                      A
 Frequencies --   1082.8082              1110.9495              1121.4728
 Red. masses --      4.1918                 2.3720                 3.5824
 Frc consts  --      2.8957                 1.7248                 2.6546
 IR Inten    --    283.9866                24.5400                93.9191

                     46                     47                     48
                      A                      A                      A
 Frequencies --   1136.2354              1144.8963              1193.5681
 Red. masses --      2.5865                 4.1020                 1.4511
 Frc consts  --      1.9674                 3.1679                 1.2180
 IR Inten    --      1.7361                11.3262                 4.7683

                     49                     50                     51
                      A                      A                      A
 Frequencies --   1208.8670              1247.3857              1283.6799
 Red. masses --      3.4330                 1.2169                 1.2146
 Frc consts  --      2.9558                 1.1156                 1.1793
 IR Inten    --     85.5395                12.4731                41.2546

                     52                     53                     54
                      A                      A                      A
 Frequencies --   1297.5636              1324.0187              1336.0216
 Red. masses --      1.1522                 1.1483                 1.2757
 Frc consts  --      1.1429                 1.1860                 1.3416
 IR Inten    --     53.3630                78.0654                 7.1728

                     55                     56                     57
                      A                      A                      A
 Frequencies --   1358.9170              1368.8315              1386.6010
 Red. masses --      1.1587                 1.2630                 1.2352
 Frc consts  --      1.2607                 1.3943                 1.3992
 IR Inten    --      8.9525                44.6959                15.6947

                     58                     59                     60
                      A                      A                      A
 Frequencies --   1399.8963              1407.4165              1418.8316
 Red. masses --      1.2868                 1.2089                 1.3064
 Frc consts  --      1.4858                 1.4109                 1.5495
 IR Inten    --     24.3076                58.8799                28.7399

                     61                     62                     63
                      A                      A                      A
 Frequencies --   1427.7326              1431.6383              1468.3497
 Red. masses --      1.3469                 1.3233                 1.5920
 Frc consts  --      1.6176                 1.5979                 2.0223
 IR Inten    --     66.3860                 1.0399                13.9223

                     64                     65                     66
                      A                      A                      A
 Frequencies --   1479.9893              1497.4293              1531.4491
 Red. masses --      1.6081                 1.3809                 1.0901
 Frc consts  --      2.0754                 1.8243                 1.5064
 IR Inten    --     19.9937                40.6030                 2.5315

                     67                     68                     69
                      A                      A                      A
 Frequencies --   1730.5387              1762.7005              2982.0005
 Red. masses --      1.0792                 1.0695                 1.0827
 Frc consts  --      1.9041                 1.9578                 5.6724
 IR Inten    --    155.4274                34.5608                20.4992

                     70                     71                     72
                      A                      A                      A
 Frequencies --   3000.5370              3015.5809              3028.6059
 Red. masses --      1.0831                 1.0841                 1.0852
 Frc consts  --      5.7453                 5.8084                 5.8646
 IR Inten    --     36.5125                16.3919                73.4361

                     73                     74                     75
                      A                      A                      A
 Frequencies --   3043.9144              3055.9863              3117.4780
 Red. masses --      1.0863                 1.0624                 1.1055
 Frc consts  --      5.9304                 5.8457                 6.3302
 IR Inten    --     44.2788                30.8774                29.3306

                     76                     77                     78
                      A                      A                      A
 Frequencies --   3253.3161              3407.2333              3564.2789
 Red. masses --      1.0700                 1.0615                 1.0575
 Frc consts  --      6.6726                 7.2603                 7.9152
 IR Inten    --    699.7304               751.4418               495.8442

                     79                     80                     81
                      A                      A                      A
 Frequencies --   3666.8357              3683.3659              3715.9768
 Red. masses --      1.0656                 1.0642                 1.0653
 Frc consts  --      8.4415                 8.5066                 8.6668
 IR Inten    --    123.8712                44.0513                31.7735

                     82                     83                     84
                      A                      A                      A
 Frequencies --   3742.1450              3786.1275              3794.0584
 Red. masses --      1.0664                 1.0685                 1.0678
 Frc consts  --      8.7987                 9.0244                 9.0559
 IR Inten    --     28.8420                49.5349                45.4567

 - Thermochemistry -
 -------------------
 Temperature   298.150 Kelvin.  Pressure   1.00000 Atm.
 Atom     1 has atomic number  8 and mass  15.99491

 Molecular mass:   216.08452 amu.
 Principal axes and moments of inertia in atomic units:
                           1         2         3
     Eigenvalues --  2404.907423726.446385235.23395
           X            0.99999   0.00381  -0.00144
           Y           -0.00380   0.99999   0.00186
           Z            0.00145  -0.00186   1.00000
 This molecule is an asymmetric top.
 Rotational symmetry number  1.
 Warning -- assumption of classical behavior for rotation
           may cause significant error
 Rotational temperatures (Kelvin)      0.03602     0.02324     0.01654
 Rotational constants (GHZ):           0.75044     0.48431     0.34473
    1 imaginary frequencies ignored.
 Zero-point vibrational energy     653037.3 (Joules/Mol)
                                  156.07965 (Kcal/Mol)
 Warning -- explicit consideration of  29 degrees of freedom as
           vibrations may cause significant error
 Vibrational temperatures:     50.32    92.07   107.93   125.16   187.66
          (Kelvin)            215.71   250.83   285.94   336.71   354.17
                              368.01   393.76   400.93   423.19   457.64
                              467.79   484.11   505.34   545.12   591.23
                              595.74   643.23   656.41   708.82   715.12
                              777.05   782.74   868.82   886.17  1001.05
                             1015.74  1117.49  1143.34  1226.12  1302.91
                             1433.96  1453.84  1478.36  1498.76  1521.67
                             1540.57  1557.92  1598.41  1613.55  1634.79
                             1647.25  1717.28  1739.29  1794.71  1846.93
                             1866.90  1904.97  1922.23  1955.18  1969.44
                             1995.01  2014.14  2024.96  2041.38  2054.19
                             2059.81  2112.63  2129.37  2154.46  2203.41
                             2489.86  2536.13  4290.43  4317.10  4338.74
                             4357.48  4379.51  4396.88  4485.35  4680.79
                             4902.24  5128.20  5275.75  5299.54  5346.46
                             5384.11  5447.39  5458.80

 Zero-point correction=                           0.248729 (Hartree/Particle)
 Thermal correction to Energy=                    0.265193
 Thermal correction to Enthalpy=                  0.266137
 Thermal correction to Gibbs Free Energy=         0.205710
 Sum of electronic and zero-point Energies=           -839.749335
 Sum of electronic and thermal Energies=              -839.732871
 Sum of electronic and thermal Enthalpies=            -839.731927
 Sum of electronic and thermal Free Energies=         -839.792354

                     E (Thermal)             CV                S
                      KCal/Mol        Cal/Mol-Kelvin    Cal/Mol-Kelvin
 Total                  166.411             62.043            127.181
 Electronic               0.000              0.000              0.000
 Translational            0.889              2.981             42.015
 Rotational               0.889              2.981             32.217
 Vibrational            164.634             56.082             52.949
 Vibration     1          0.594              1.982              5.525
 Vibration     2          0.597              1.971              4.330
 Vibration     3          0.599              1.966              4.017
 Vibration     4          0.601              1.958              3.727
 Vibration     5          0.612              1.923              2.940
 Vibration     6          0.618              1.903              2.673
 Vibration     7          0.627              1.874              2.388
 Vibration     8          0.637              1.842              2.145
 Vibration     9          0.654              1.789              1.848
 Vibration    10          0.661              1.769              1.758
 Vibration    11          0.666              1.753              1.690
 Vibration    12          0.676              1.722              1.573
 Vibration    13          0.679              1.713              1.542
 Vibration    14          0.689              1.685              1.450
 Vibration    15          0.704              1.639              1.320
 Vibration    16          0.709              1.625              1.284
 Vibration    17          0.717              1.603              1.229
 Vibration    18          0.728              1.573              1.161
 Vibration    19          0.749              1.515              1.044
 Vibration    20          0.775              1.447              0.923
 Vibration    21          0.778              1.440              0.912
 Vibration    22          0.806              1.367              0.805
 Vibration    23          0.814              1.347              0.777
 Vibration    24          0.848              1.266              0.677
 Vibration    25          0.853              1.257              0.666
 Vibration    26          0.895              1.161              0.565
 Vibration    27          0.899              1.153              0.557
 Vibration    28          0.962              1.024              0.443
 Vibration    29          0.976              0.998              0.423

 Optimization completed.
    -- Stationary point found.
 Normal termination of Gaussian 09 at Tue Jan 31 07:03:08 2017.
