 Gaussian 09, Revision E.01,
 Gaussian 09:  ES64L-G09RevE.01 30-Nov-2015

 ----------------------------------------------------------------------
 # opt=(calcfc,ts,noeigentest,maxcycle=1000,cartesian) b3lyp 6-31g(d) f
 req
 ----------------------------------------------------------------------

 ------------------------------------------
 ./4/glo_1w_beta_boat4_b3lyp_631Gd_iopt.out
 ------------------------------------------
 Symbolic Z-matrix:
 Charge =  0 Multiplicity = 1

 SCF Done:  E(RB3LYP) =  -839.987999097     A.U. after   14 cycles
 SCF Done:  E(RB3LYP) =  -839.987993979     A.U. after   11 cycles
 SCF Done:  E(RB3LYP) =  -839.987983448     A.U. after   10 cycles
 SCF Done:  E(RB3LYP) =  -839.987979771     A.U. after   10 cycles
 SCF Done:  E(RB3LYP) =  -839.988004900     A.U. after   10 cycles
 SCF Done:  E(RB3LYP) =  -839.987985655     A.U. after   10 cycles
 SCF Done:  E(RB3LYP) =  -839.987982261     A.U. after    9 cycles
 SCF Done:  E(RB3LYP) =  -839.987982312     A.U. after    8 cycles
 SCF Done:  E(RB3LYP) =  -839.987979437     A.U. after    9 cycles
 SCF Done:  E(RB3LYP) =  -839.987982718     A.U. after    7 cycles
 SCF Done:  E(RB3LYP) =  -839.987983521     A.U. after    7 cycles
 SCF Done:  E(RB3LYP) =  -839.987984823     A.U. after    7 cycles
 SCF Done:  E(RB3LYP) =  -839.987985498     A.U. after    7 cycles
 SCF Done:  E(RB3LYP) =  -839.987984380     A.U. after    7 cycles
 Optimization completed.
    -- Stationary point found.
 Normal termination of Gaussian 09 at Mon Jan 30 07:07:53 2017.

 --------------------------------------------------------------------
 #N Geom=AllCheck Guess=TCheck SCRF=Check GenChk RB3LYP/6-31G(d) Freq
 --------------------------------------------------------------------

 Structure from the checkpoint file:  "/scratch/10499761.yak.local/Gau-11081.chk"
 ------------------------------------------
 ./4/glo_1w_beta_boat4_b3lyp_631Gd_iopt.out
 ------------------------------------------
 Charge =  0 Multiplicity = 1

                         Standard orientation:
 ---------------------------------------------------------------------
 Center     Atomic      Atomic             Coordinates (Angstroms)
 Number     Number       Type             X           Y           Z
 ---------------------------------------------------------------------
      1          8           0       -1.544192    0.242628    0.331304
      2          6           0        0.840512    0.543391   -0.357871
      3          6           0       -0.308950   -1.595265   -0.798840
      4          6           0        0.867288   -0.954354   -0.055511
      5          6           0       -1.617969   -0.801578   -0.642505
      6          6           0       -0.433768    1.154077    0.265672
      7          1           0        0.719453   -1.101763    1.027235
      8          1           0       -0.190101    1.373292    1.313133
      9          1           0        0.839632    0.676372   -1.449256
     10          1           0       -2.397295   -1.460521   -0.246491
     11          6           0       -0.839178    2.456866   -0.433430
     12          1           0       -1.027276    2.267172   -1.493282
     13          1           0       -1.756412    2.862869    0.012963
     14          1           0       -0.050246   -1.595226   -1.867654
     15          8           0       -1.952427   -0.282171   -1.908517
     16          1           0       -2.835940    0.114553   -1.836860
     17          8           0        0.235604    3.408686   -0.375170
     18          1           0        0.207907    3.833541    0.496704
     19          8           0       -0.532638   -2.916314   -0.339436
     20          1           0        0.338845   -3.347033   -0.378021
     21          8           0        2.013197   -1.636640   -0.514165
     22          1           0        2.777945   -1.398434    0.061097
     23          8           0        1.979041    1.215542    0.192670
     24          1           0        1.881366    2.147783   -0.078401
     25          8           0       -2.981334   -0.594217    2.705744
     26          1           0       -3.825685   -0.148393    2.546674
     27          1           0       -2.414208   -0.279388    1.978978
     28          8           0        3.963142   -0.497429    1.063514
     29          1           0        3.768032   -0.592046    2.008182
     30          1           0        3.473218    0.307729    0.792352
 ---------------------------------------------------------------------

 SCF Done:  E(RB3LYP) =  -839.987984380     A.U. after    1 cycles

 The electronic state is 1-A.
 Alpha  occ. eigenvalues --  -19.18764 -19.18376 -19.17282 -19.17232 -19.15182
 Alpha  occ. eigenvalues --  -19.14270 -19.13247 -19.11255 -10.29914 -10.25966
 Alpha  occ. eigenvalues --  -10.25696 -10.25172 -10.23889 -10.23796  -1.08784
 Alpha  occ. eigenvalues --   -1.05740  -1.04309  -1.02621  -1.02181  -1.01082
 Alpha  occ. eigenvalues --   -0.99795  -0.97299  -0.79568  -0.77682  -0.70634
 Alpha  occ. eigenvalues --   -0.64884  -0.64212  -0.57534  -0.56141  -0.55992
 Alpha  occ. eigenvalues --   -0.54170  -0.52996  -0.52221  -0.49986  -0.49694
 Alpha  occ. eigenvalues --   -0.48198  -0.46229  -0.45344  -0.44681  -0.43878
 Alpha  occ. eigenvalues --   -0.42856  -0.40971  -0.40498  -0.39018  -0.37770
 Alpha  occ. eigenvalues --   -0.36684  -0.35547  -0.34906  -0.34328  -0.33048
 Alpha  occ. eigenvalues --   -0.32425  -0.31264  -0.29935  -0.29430  -0.28075
 Alpha  occ. eigenvalues --   -0.27205  -0.26960  -0.25611
 Alpha virt. eigenvalues --    0.02869   0.04944   0.06531   0.07043   0.09769
 Alpha virt. eigenvalues --    0.10157   0.10698   0.11835   0.12719   0.13595
 Alpha virt. eigenvalues --    0.14163   0.15502   0.15628   0.16978   0.18081

 Mulliken charges:
               1
     1  O   -0.531744
     2  C    0.094770
     3  C    0.126756
     4  C    0.091066
     5  C    0.300096
     6  C    0.119221
     7  H    0.125911
     8  H    0.141861
     9  H    0.148051
    10  H    0.171178
    11  C   -0.081002
    12  H    0.175724
    13  H    0.143490
    14  H    0.159932
    15  O   -0.610994
    16  H    0.397933
    17  O   -0.619585
    18  H    0.404845
    19  O   -0.646851
    20  H    0.408723
    21  O   -0.681812
    22  H    0.433264
    23  O   -0.678427
    24  H    0.418460
    25  O   -0.824498
    26  H    0.371190
    27  H    0.415114
    28  O   -0.800708
    29  H    0.395361
    30  H    0.432678
 Sum of Mulliken charges =  -0.00000

 Dipole moment (field-independent basis, Debye):
    X=             -1.5908    Y=              5.1483    Z=              0.4486  Tot=              5.4071
 Quadrupole moment (field-independent basis, Debye-Ang):
   XX=            -83.8248   YY=            -80.5723   ZZ=            -90.0390
   XY=             -5.5451   XZ=             12.2896   YZ=              6.3848

  Exact polarizability: 101.286  -1.552  98.116   4.369   0.955  82.593
 Approx polarizability: 131.559  -0.103 125.672   2.263   0.410 122.999

 ******    1 imaginary frequencies (negative Signs) ******

                      1                      2                      3
                      A                      A                      A
 Frequencies --    -42.0726                16.3052                37.0086
 Red. masses --      9.0838                 6.5673                 5.7587
 Frc consts  --      0.0095                 0.0010                 0.0046
 IR Inten    --     13.1969                 2.5065                 0.1988

                      4                      5                      6
                      A                      A                      A
 Frequencies --     49.5926                90.3009               105.5634
 Red. masses --      5.8825                 6.2424                 5.9256
 Frc consts  --      0.0085                 0.0300                 0.0389
 IR Inten    --      1.0315                 1.6162                 2.6471

                      7                      8                      9
                      A                      A                      A
 Frequencies --    113.6406               134.5690               144.9284
 Red. masses --      1.0844                 4.4331                 4.1886
 Frc consts  --      0.0083                 0.0473                 0.0518
 IR Inten    --     80.9238                 5.9051                 4.0384

                     10                     11                     12
                      A                      A                      A
 Frequencies --    170.6200               180.7780               234.2879
 Red. masses --      3.7477                 7.1326                 3.4672
 Frc consts  --      0.0643                 0.1373                 0.1121
 IR Inten    --     18.3684                10.8056                12.9964

                     13                     14                     15
                      A                      A                      A
 Frequencies --    240.4470               255.0131               282.2898
 Red. masses --      2.0563                 1.6318                 1.4515
 Frc consts  --      0.0700                 0.0625                 0.0682
 IR Inten    --     32.2036                65.1212                24.8715

                     16                     17                     18
                      A                      A                      A
 Frequencies --    285.4843               312.2231               323.6106
 Red. masses --      2.1994                 1.2318                 2.0594
 Frc consts  --      0.1056                 0.0708                 0.1271
 IR Inten    --     57.4808               157.2878                59.6013

                     19                     20                     21
                      A                      A                      A
 Frequencies --    337.6626               338.4192               377.0353
 Red. masses --      2.2809                 2.0973                 3.3497
 Frc consts  --      0.1532                 0.1415                 0.2806
 IR Inten    --     23.9798                25.0739                30.1428

                     22                     23                     24
                      A                      A                      A
 Frequencies --    403.3349               415.1007               459.5065
 Red. masses --      4.6447                 1.6416                 1.8434
 Frc consts  --      0.4452                 0.1667                 0.2293
 IR Inten    --     13.0020                67.3916                72.9415

                     25                     26                     27
                      A                      A                      A
 Frequencies --    464.0082               478.5278               506.9980
 Red. masses --      2.8622                 1.9548                 3.9794
 Frc consts  --      0.3631                 0.2637                 0.6027
 IR Inten    --     16.3544                75.5360                 9.7755

                     28                     29                     30
                      A                      A                      A
 Frequencies --    542.9242               556.7438               583.6793
 Red. masses --      3.0993                 1.4501                 2.7821
 Frc consts  --      0.5383                 0.2648                 0.5584
 IR Inten    --     23.7811                71.6364                29.2472

                     31                     32                     33
                      A                      A                      A
 Frequencies --    602.2400               614.8308               700.4355
 Red. masses --      1.1311                 2.9646                 1.1369
 Frc consts  --      0.2417                 0.6603                 0.3286
 IR Inten    --     81.0611                15.2329               365.8246

                     34                     35                     36
                      A                      A                      A
 Frequencies --    764.1577               903.3981               912.1667
 Red. masses --      5.0704                 1.5226                 1.4276
 Frc consts  --      1.7444                 0.7321                 0.6999
 IR Inten    --     32.0597                43.8462                78.7178

                     37                     38                     39
                      A                      A                      A
 Frequencies --    933.5889              1002.4829              1012.9084
 Red. masses --      2.9186                 3.1812                 3.8018
 Frc consts  --      1.4988                 1.8836                 2.2982
 IR Inten    --     56.5285                 3.1207                 3.5111

                     40                     41                     42
                      A                      A                      A
 Frequencies --   1042.4178              1049.8184              1060.6969
 Red. masses --      4.7884                 5.1112                 3.8578
 Frc consts  --      3.0657                 3.3190                 2.5572
 IR Inten    --    134.1367               118.8489               181.5650

                     43                     44                     45
                      A                      A                      A
 Frequencies --   1083.4169              1110.2191              1123.1643
 Red. masses --      2.1639                 3.1660                 2.6981
 Frc consts  --      1.4965                 2.2992                 2.0054
 IR Inten    --     43.4249               100.6344                 2.8187

                     46                     47                     48
                      A                      A                      A
 Frequencies --   1137.5999              1148.4869              1157.2196
 Red. masses --      2.8330                 3.7840                 4.0844
 Frc consts  --      2.1601                 2.9407                 3.2226
 IR Inten    --     59.2883                76.8815                61.5236

                     49                     50                     51
                      A                      A                      A
 Frequencies --   1191.4702              1231.6716              1262.9339
 Red. masses --      1.6271                 1.1717                 1.2157
 Frc consts  --      1.3609                 1.0473                 1.1424
 IR Inten    --      7.3677                21.0330                29.5524

                     52                     53                     54
                      A                      A                      A
 Frequencies --   1295.1556              1303.1840              1333.6358
 Red. masses --      1.1580                 1.1344                 1.2490
 Frc consts  --      1.1445                 1.1350                 1.3088
 IR Inten    --     86.3070                 9.5818                 8.4721

                     55                     56                     57
                      A                      A                      A
 Frequencies --   1359.7128              1381.8005              1396.1271
 Red. masses --      1.1702                 1.2869                 1.2576
 Frc consts  --      1.2747                 1.4477                 1.4442
 IR Inten    --      1.4333                17.1735                13.5952

                     58                     59                     60
                      A                      A                      A
 Frequencies --   1403.3378              1406.8729              1411.9477
 Red. masses --      1.2278                 1.2702                 1.2568
 Frc consts  --      1.4246                 1.4813                 1.4762
 IR Inten    --     53.6379                16.4744                28.7740

                     61                     62                     63
                      A                      A                      A
 Frequencies --   1417.0852              1429.3416              1469.0407
 Red. masses --      1.3928                 1.3207                 1.4273
 Frc consts  --      1.6480                 1.5897                 1.8148
 IR Inten    --     39.7793                30.3339                 9.7189

                     64                     65                     66
                      A                      A                      A
 Frequencies --   1487.0268              1502.0115              1540.0573
 Red. masses --      1.6541                 1.3584                 1.0836
 Frc consts  --      2.1551                 1.8056                 1.5142
 IR Inten    --     12.7751                40.1081                 1.1786

                     67                     68                     69
                      A                      A                      A
 Frequencies --   1716.9958              1725.1135              2993.1275
 Red. masses --      1.0771                 1.0794                 1.0823
 Frc consts  --      1.8708                 1.8927                 5.7127
 IR Inten    --     64.4553                67.6346                20.1178

                     70                     71                     72
                      A                      A                      A
 Frequencies --   3026.9146              3036.4049              3049.1410
 Red. masses --      1.0838                 1.0846                 1.0714
 Frc consts  --      5.8504                 5.8915                 5.8691
 IR Inten    --      1.5191                43.2514                50.6433

                     73                     74                     75
                      A                      A                      A
 Frequencies --   3054.0495              3097.2365              3136.1591
 Red. masses --      1.0815                 1.0880                 1.1009
 Frc consts  --      5.9436                 6.1495                 6.3799
 IR Inten    --     34.1735                20.5139                19.5171

                     76                     77                     78
                      A                      A                      A
 Frequencies --   3449.6696              3589.8334              3659.6722
 Red. masses --      1.0674                 1.0560                 1.0653
 Frc consts  --      7.4843                 8.0180                 8.4066
 IR Inten    --    467.9567               514.8675               111.4924

                     79                     80                     81
                      A                      A                      A
 Frequencies --   3671.0224              3715.8177              3732.6631
 Red. masses --      1.0499                 1.0652                 1.0657
 Frc consts  --      8.3361                 8.6656                 8.7484
 IR Inten    --    231.0066                36.9790                22.2092

                     82                     83                     84
                      A                      A                      A
 Frequencies --   3743.5041              3800.2177              3817.1337
 Red. masses --      1.0665                 1.0716                 1.0765
 Frc consts  --      8.8058                 9.1179                 9.2413
 IR Inten    --     27.8977                68.4584                90.1400

 - Thermochemistry -
 -------------------
 Temperature   298.150 Kelvin.  Pressure   1.00000 Atm.
 Atom     1 has atomic number  8 and mass  15.99491

 Molecular mass:   216.08452 amu.
 Principal axes and moments of inertia in atomic units:
                           1         2         3
     Eigenvalues --  3025.543703625.830304858.09095
           X            0.99960  -0.02771   0.00475
           Y            0.02770   0.99962   0.00153
           Z           -0.00479  -0.00140   0.99999
 This molecule is an asymmetric top.
 Rotational symmetry number  1.
 Warning -- assumption of classical behavior for rotation
           may cause significant error
 Rotational temperatures (Kelvin)      0.02863     0.02389     0.01783
 Rotational constants (GHZ):           0.59650     0.49775     0.37149
    1 imaginary frequencies ignored.
 Zero-point vibrational energy     649793.2 (Joules/Mol)
                                  155.30430 (Kcal/Mol)
 Warning -- explicit consideration of  31 degrees of freedom as
           vibrations may cause significant error
 Vibrational temperatures:     23.46    53.25    71.35   129.92   151.88
          (Kelvin)            163.50   193.61   208.52   245.48   260.10
                              337.09   345.95   366.91   406.15   410.75
                              449.22   465.60   485.82   486.91   542.47
                              580.31   597.24   661.13   667.60   688.49
                              729.46   781.15   801.03   839.78   866.49
                              884.60  1007.77  1099.45  1299.79  1312.40
                             1343.22  1442.35  1457.35  1499.80  1510.45
                             1526.10  1558.79  1597.36  1615.98  1636.75
                             1652.41  1664.98  1714.26  1772.10  1817.08
                             1863.44  1874.99  1918.80  1956.32  1988.10
                             2008.71  2019.09  2024.17  2031.48  2038.87
                             2056.50  2113.62  2139.50  2161.06  2215.80
                             2470.37  2482.05  4306.44  4355.05  4368.70
                             4387.03  4394.09  4456.23  4512.23  4963.30
                             5164.96  5265.45  5281.78  5346.23  5370.46
                             5386.06  5467.66  5492.00

 Zero-point correction=                           0.247493 (Hartree/Particle)
 Thermal correction to Energy=                    0.265129
 Thermal correction to Enthalpy=                  0.266073
 Thermal correction to Gibbs Free Energy=         0.201471
 Sum of electronic and zero-point Energies=           -839.740491
 Sum of electronic and thermal Energies=              -839.722856
 Sum of electronic and thermal Enthalpies=            -839.721912
 Sum of electronic and thermal Free Energies=         -839.786514

                     E (Thermal)             CV                S
                      KCal/Mol        Cal/Mol-Kelvin    Cal/Mol-Kelvin
 Total                  166.371             63.966            135.966
 Electronic               0.000              0.000              0.000
 Translational            0.889              2.981             42.015
 Rotational               0.889              2.981             32.344
 Vibrational            164.593             58.005             61.608
 Vibration     1          0.593              1.986              7.040
 Vibration     2          0.594              1.982              5.413
 Vibration     3          0.595              1.978              4.834
 Vibration     4          0.602              1.956              3.654
 Vibration     5          0.605              1.945              3.349
 Vibration     6          0.607              1.938              3.206
 Vibration     7          0.613              1.919              2.880
 Vibration     8          0.616              1.908              2.738
 Vibration     9          0.626              1.879              2.429
 Vibration    10          0.630              1.866              2.320
 Vibration    11          0.654              1.788              1.846
 Vibration    12          0.658              1.778              1.800
 Vibration    13          0.665              1.754              1.696
 Vibration    14          0.681              1.706              1.520
 Vibration    15          0.683              1.701              1.501
 Vibration    16          0.701              1.650              1.351
 Vibration    17          0.708              1.628              1.292
 Vibration    18          0.718              1.600              1.223
 Vibration    19          0.719              1.599              1.220
 Vibration    20          0.748              1.519              1.051
 Vibration    21          0.769              1.463              0.950
 Vibration    22          0.779              1.437              0.909
 Vibration    23          0.817              1.340              0.768
 Vibration    24          0.822              1.330              0.755
 Vibration    25          0.835              1.298              0.714
 Vibration    26          0.862              1.234              0.641
 Vibration    27          0.898              1.155              0.559
 Vibration    28          0.912              1.125              0.530
 Vibration    29          0.941              1.067              0.479
 Vibration    30          0.961              1.027              0.446
 Vibration    31          0.974              1.001              0.425

 Normal termination of Gaussian 09 at Mon Jan 30 07:27:06 2017.
