 Gaussian 09, Revision E.01,
 Gaussian 09:  ES64L-G09RevE.01 30-Nov-2015

 ----------------------------------------------------------------------
 # opt=(calcfc,ts,noeigentest,maxcycle=1000,cartesian) b3lyp 6-31g(d) f
 req
 ----------------------------------------------------------------------

 -------------------------------------------
 ./4/glo_1w_alpha_boat4_b3lyp_631Gd_iopt.out
 -------------------------------------------
 Symbolic Z-matrix:
 Charge =  0 Multiplicity = 1

 SCF Done:  E(RB3LYP) =  -839.997776911     A.U. after   13 cycles
 Optimization completed.
    -- Stationary point found.
 Normal termination of Gaussian 09 at Tue Jan 31 06:41:50 2017.

 --------------------------------------------------------------------
 #N Geom=AllCheck Guess=TCheck SCRF=Check GenChk RB3LYP/6-31G(d) Freq
 --------------------------------------------------------------------

 Structure from the checkpoint file:  "/scratch/10501381.yak.local/Gau-18776.chk"
 -------------------------------------------
 ./4/glo_1w_alpha_boat4_b3lyp_631Gd_iopt.out
 -------------------------------------------
 Charge =  0 Multiplicity = 1

                         Standard orientation:
 ---------------------------------------------------------------------
 Center     Atomic      Atomic             Coordinates (Angstroms)
 Number     Number       Type             X           Y           Z
 ---------------------------------------------------------------------
      1          8           0       -1.326800    0.963221   -0.324059
      2          6           0        1.049550    0.242580   -0.310789
      3          6           0       -0.839221   -1.459049   -0.308349
      4          6           0        0.640499   -1.196000    0.041811
      5          6           0       -1.528320   -0.284049   -1.027789
      6          6           0       -0.008380    1.264020    0.139891
      7          1           0        0.740859   -1.303750    1.133871
      8          1           0       -0.014300    1.258100    1.242811
      9          1           0        1.183720    0.301820   -1.402039
     10          6           0        0.301911    2.685310   -0.357699
     11          1           0        0.356421    2.682140   -1.450219
     12          1           0       -0.508299    3.364071   -0.063879
     13          1           0       -0.853071   -2.313469   -0.993679
     14          8           0        1.574431    3.169310    0.099611
     15          1           0        1.482802    3.422290    1.032161
     16          8           0       -1.540941   -1.803639    0.899381
     17          1           0       -2.341301   -2.280608    0.624521
     18          8           0        1.409639   -2.151990   -0.653279
     19          1           0        2.336129   -2.124171   -0.316359
     20          8           0        2.285640    0.541249    0.348841
     21          1           0        2.456251    1.494309    0.198971
     22          1           0       -1.118160   -0.199079   -2.043289
     23          8           0       -2.893500   -0.469698   -1.160969
     24          1           0       -3.302890   -0.301128   -0.277399
     25          8           0       -3.443360    0.231782    1.493741
     26          1           0       -2.961920    1.018232    1.184061
     27          1           0       -2.712290   -0.391718    1.678881
     28          8           0        3.935759   -1.664952    0.382111
     29          1           0        3.592119   -0.745251    0.389561
     30          1           0        3.960749   -1.920932    1.316591
 ---------------------------------------------------------------------

 SCF Done:  E(RB3LYP) =  -839.997776911     A.U. after    1 cycles

 The electronic state is 1-A.
 Alpha  occ. eigenvalues --  -19.19317 -19.17456 -19.17361 -19.17105 -19.14906
 Alpha  occ. eigenvalues --  -19.14778 -19.14653 -19.12694 -10.29339 -10.26199
 Alpha  occ. eigenvalues --  -10.26023 -10.25385 -10.24571 -10.24339  -1.08077
 Alpha  occ. eigenvalues --   -1.06261  -1.04198  -1.03917  -1.01056  -1.00976
 Alpha  occ. eigenvalues --   -1.00336  -0.99921  -0.79092  -0.77685  -0.70415
 Alpha  occ. eigenvalues --   -0.65830  -0.64028  -0.57531  -0.56175  -0.56010
 Alpha  occ. eigenvalues --   -0.53421  -0.52875  -0.52672  -0.51945  -0.50915
 Alpha  occ. eigenvalues --   -0.48603  -0.47043  -0.45996  -0.45518  -0.42671
 Alpha  occ. eigenvalues --   -0.42384  -0.41624  -0.40237  -0.38950  -0.38006
 Alpha  occ. eigenvalues --   -0.37299  -0.36965  -0.36088  -0.34704  -0.33833
 Alpha  occ. eigenvalues --   -0.32039  -0.31288  -0.30330  -0.30150  -0.29066
 Alpha  occ. eigenvalues --   -0.28920  -0.26112  -0.25549
 Alpha virt. eigenvalues --    0.02913   0.04778   0.06971   0.07257   0.08568
 Alpha virt. eigenvalues --    0.10567   0.12147   0.12481   0.13350   0.13833
 Alpha virt. eigenvalues --    0.14663   0.15550   0.16054   0.17031   0.18411

 Mulliken charges:
               1
     1  O   -0.540452
     2  C    0.097230
     3  C    0.070132
     4  C    0.129068
     5  C    0.334516
     6  C    0.108712
     7  H    0.136277
     8  H    0.123426
     9  H    0.138973
    10  C   -0.069454
    11  H    0.170562
    12  H    0.156895
    13  H    0.169614
    14  O   -0.620815
    15  H    0.408225
    16  O   -0.645033
    17  H    0.411341
    18  O   -0.677966
    19  H    0.428121
    20  O   -0.691203
    21  H    0.427450
    22  H    0.139327
    23  O   -0.650790
    24  H    0.412375
    25  O   -0.805099
    26  H    0.406150
    27  H    0.409754
    28  O   -0.801030
    29  H    0.429503
    30  H    0.394191
 Sum of Mulliken charges =   0.00000

 Dipole moment (field-independent basis, Debye):
    X=              1.5077    Y=              2.9507    Z=              2.6169  Tot=              4.2224
 Quadrupole moment (field-independent basis, Debye-Ang):
   XX=           -100.3834   YY=            -78.7953   ZZ=            -82.5896
   XY=              7.0564   XZ=              7.9786   YZ=              0.2273

  Exact polarizability: 104.741   0.936  96.745   2.345   2.956  82.748
 Approx polarizability: 135.340   0.849 125.068   2.539   5.748 126.608

 ******    1 imaginary frequencies (negative Signs) ******

                      1                      2                      3
                      A                      A                      A
 Frequencies --    -30.6260                42.8786                67.6107
 Red. masses --      5.5950                 6.3634                 5.7279
 Frc consts  --      0.0031                 0.0069                 0.0154
 IR Inten    --      2.3356                 1.2428                 4.8192

                      4                      5                      6
                      A                      A                      A
 Frequencies --     84.0813               119.0766               153.1296
 Red. masses --      5.8903                 4.8818                 4.9824
 Frc consts  --      0.0245                 0.0408                 0.0688
 IR Inten    --      0.7682                 0.6097                18.6608

                      7                      8                      9
                      A                      A                      A
 Frequencies --    161.6304               176.2732               195.7646
 Red. masses --      3.8447                 4.0612                 5.4592
 Frc consts  --      0.0592                 0.0743                 0.1233
 IR Inten    --      7.5254                 4.4272                 9.4861

                     10                     11                     12
                      A                      A                      A
 Frequencies --    201.9111               244.6885               264.8046
 Red. masses --      6.4358                 5.3528                 3.0268
 Frc consts  --      0.1546                 0.1888                 0.1250
 IR Inten    --     10.8723                 7.3427                58.9713

                     13                     14                     15
                      A                      A                      A
 Frequencies --    270.3959               299.3854               318.0074
 Red. masses --      4.2065                 1.1517                 1.8805
 Frc consts  --      0.1812                 0.0608                 0.1120
 IR Inten    --     27.1058                37.5060                17.5241

                     16                     17                     18
                      A                      A                      A
 Frequencies --    324.1243               334.8631               347.2679
 Red. masses --      1.2883                 2.3096                 1.3895
 Frc consts  --      0.0797                 0.1526                 0.0987
 IR Inten    --    176.9685               111.8313                61.3565

                     19                     20                     21
                      A                      A                      A
 Frequencies --    356.1703               381.4771               394.4162
 Red. masses --      4.7736                 2.5280                 2.6397
 Frc consts  --      0.3568                 0.2167                 0.2419
 IR Inten    --      1.6221                91.0523                77.6292

                     22                     23                     24
                      A                      A                      A
 Frequencies --    402.1445               414.1371               453.8736
 Red. masses --      2.1232                 1.7894                 1.4505
 Frc consts  --      0.2023                 0.1808                 0.1760
 IR Inten    --     26.1763                11.0487                27.7046

                     25                     26                     27
                      A                      A                      A
 Frequencies --    462.9969               489.4701               550.5382
 Red. masses --      5.1068                 4.2940                 2.9130
 Frc consts  --      0.6450                 0.6061                 0.5202
 IR Inten    --      7.6952                 8.3290                 3.7734

                     28                     29                     30
                      A                      A                      A
 Frequencies --    600.3567               674.7328               676.9434
 Red. masses --      3.3846                 1.5410                 1.3235
 Frc consts  --      0.7187                 0.4133                 0.3573
 IR Inten    --     25.2898                85.2682                64.6965

                     31                     32                     33
                      A                      A                      A
 Frequencies --    708.9938               741.1644               793.5899
 Red. masses --      1.5935                 1.1613                 5.8270
 Frc consts  --      0.4719                 0.3758                 2.1621
 IR Inten    --    247.6546               249.5276                90.4223

                     34                     35                     36
                      A                      A                      A
 Frequencies --    833.3663               889.1211               901.2147
 Red. masses --      3.4015                 1.1379                 1.4796
 Frc consts  --      1.3919                 0.5300                 0.7080
 IR Inten    --     48.7523               138.4951                42.7654

                     37                     38                     39
                      A                      A                      A
 Frequencies --    905.3859               982.9482              1015.8264
 Red. masses --      1.1936                 3.1534                 4.1251
 Frc consts  --      0.5765                 1.7951                 2.5080
 IR Inten    --     23.9481                46.7722                29.7488

                     40                     41                     42
                      A                      A                      A
 Frequencies --   1037.3879              1054.4807              1068.3911
 Red. masses --      3.1146                 4.3068                 3.5604
 Frc consts  --      1.9748                 2.8215                 2.3945
 IR Inten    --     71.7755                42.9673                30.2149

                     43                     44                     45
                      A                      A                      A
 Frequencies --   1090.4057              1102.6903              1118.8905
 Red. masses --      4.9598                 2.3845                 4.1839
 Frc consts  --      3.4745                 1.7082                 3.0861
 IR Inten    --    248.6694                11.5776               110.1234

                     46                     47                     48
                      A                      A                      A
 Frequencies --   1128.9753              1142.4308              1190.6716
 Red. masses --      2.9029                 2.7801                 2.7536
 Frc consts  --      2.1800                 2.1378                 2.3000
 IR Inten    --     46.2994                 6.0458                88.2747

                     49                     50                     51
                      A                      A                      A
 Frequencies --   1203.0141              1258.1421              1280.4234
 Red. masses --      1.5530                 1.1101                 1.2783
 Frc consts  --      1.3242                 1.0353                 1.2347
 IR Inten    --     12.3956                25.2252                29.3894

                     52                     53                     54
                      A                      A                      A
 Frequencies --   1309.3649              1335.7516              1337.2946
 Red. masses --      1.2250                 1.1659                 1.3314
 Frc consts  --      1.2374                 1.2256                 1.4028
 IR Inten    --     13.9454                13.3036                18.9593

                     55                     56                     57
                      A                      A                      A
 Frequencies --   1357.7784              1374.7551              1388.2038
 Red. masses --      1.2068                 1.2472                 1.3219
 Frc consts  --      1.3108                 1.3888                 1.5010
 IR Inten    --      2.4111                22.6499                23.6843

                     58                     59                     60
                      A                      A                      A
 Frequencies --   1394.4600              1399.8831              1423.5167
 Red. masses --      1.3144                 1.3628                 1.3126
 Frc consts  --      1.5059                 1.5735                 1.5671
 IR Inten    --     28.4487                49.8509                10.1555

                     61                     62                     63
                      A                      A                      A
 Frequencies --   1429.2643              1435.0752              1480.2461
 Red. masses --      1.3321                 1.3574                 1.3989
 Frc consts  --      1.6033                 1.6471                 1.8060
 IR Inten    --     28.8540                34.2129                31.2255

                     64                     65                     66
                      A                      A                      A
 Frequencies --   1504.0819              1511.3658              1529.3659
 Red. masses --      1.1727                 1.3174                 1.1006
 Frc consts  --      1.5631                 1.7730                 1.5167
 IR Inten    --     89.1249                36.8221                 4.4718

                     67                     68                     69
                      A                      A                      A
 Frequencies --   1721.9239              1754.1213              2984.6593
 Red. masses --      1.0758                 1.0799                 1.0833
 Frc consts  --      1.8793                 1.9578                 5.6855
 IR Inten    --     57.7955               154.5989                22.1667

                     70                     71                     72
                      A                      A                      A
 Frequencies --   2998.4367              3016.1136              3044.1721
 Red. masses --      1.0823                 1.0857                 1.0864
 Frc consts  --      5.7331                 5.8189                 5.9317
 IR Inten    --      9.7911                41.3064                66.4182

                     73                     74                     75
                      A                      A                      A
 Frequencies --   3059.8140              3083.5571              3127.2071
 Red. masses --      1.0638                 1.0867                 1.1045
 Frc consts  --      5.8680                 6.0877                 6.3640
 IR Inten    --     38.4200                21.9721                23.2496

                     76                     77                     78
                      A                      A                      A
 Frequencies --   3420.7568              3448.2409              3561.9105
 Red. masses --      1.0668                 1.0672                 1.0614
 Frc consts  --      7.3547                 7.4765                 7.9339
 IR Inten    --    344.7703               378.9262               712.0386

                     79                     80                     81
                      A                      A                      A
 Frequencies --   3585.1289              3623.9472              3734.4108
 Red. masses --      1.0615                 1.0541                 1.0659
 Frc consts  --      8.0389                 8.1565                 8.7580
 IR Inten    --    152.0010               173.3910                41.9028

                     82                     83                     84
                      A                      A                      A
 Frequencies --   3741.6721              3757.6082              3798.3535
 Red. masses --      1.0663                 1.0719                 1.0708
 Frc consts  --      8.7958                 8.9172                 9.1024
 IR Inten    --     29.9839                51.7638                69.8011

 - Thermochemistry -
 -------------------
 Temperature   298.150 Kelvin.  Pressure   1.00000 Atm.
 Atom     1 has atomic number  8 and mass  15.99491

 Molecular mass:   216.08452 amu.
 Principal axes and moments of inertia in atomic units:
                           1         2         3
     Eigenvalues --  2434.979803741.617955320.45728
           X            0.99999  -0.00350   0.00137
           Y            0.00350   0.99999  -0.00186
           Z           -0.00137   0.00186   1.00000
 This molecule is an asymmetric top.
 Rotational symmetry number  1.
 Warning -- assumption of classical behavior for rotation
           may cause significant error
 Rotational temperatures (Kelvin)      0.03557     0.02315     0.01628
 Rotational constants (GHZ):           0.74117     0.48234     0.33921
    1 imaginary frequencies ignored.
 Zero-point vibrational energy     655452.5 (Joules/Mol)
                                  156.65691 (Kcal/Mol)
 Warning -- explicit consideration of  27 degrees of freedom as
           vibrations may cause significant error
 Vibrational temperatures:     61.69    97.28   120.97   171.32   220.32
          (Kelvin)            232.55   253.62   281.66   290.50   352.05
                              380.99   389.04   430.75   457.54   466.34
                              481.79   499.64   512.45   548.86   567.48
                              578.60   595.85   653.02   666.15   704.24
                              792.10   863.78   970.79   973.97  1020.08
                             1066.37  1141.80  1199.03  1279.25  1296.65
                             1302.65  1414.24  1461.55  1492.57  1517.16
                             1537.17  1568.85  1586.52  1609.83  1624.34
                             1643.70  1713.11  1730.87  1810.18  1842.24
                             1883.88  1921.85  1924.07  1953.54  1977.96
                             1997.31  2006.31  2014.12  2048.12  2056.39
                             2064.75  2129.74  2164.04  2174.52  2200.41
                             2477.46  2523.79  4294.25  4314.08  4339.51
                             4379.88  4402.38  4436.55  4499.35  4921.70
                             4961.24  5124.79  5158.19  5214.05  5372.98
                             5383.42  5406.35  5464.98

 Zero-point correction=                           0.249649 (Hartree/Particle)
 Thermal correction to Energy=                    0.265862
 Thermal correction to Enthalpy=                  0.266807
 Thermal correction to Gibbs Free Energy=         0.207328
 Sum of electronic and zero-point Energies=           -839.748128
 Sum of electronic and thermal Energies=              -839.731915
 Sum of electronic and thermal Enthalpies=            -839.730970
 Sum of electronic and thermal Free Energies=         -839.790449

                     E (Thermal)             CV                S
                      KCal/Mol        Cal/Mol-Kelvin    Cal/Mol-Kelvin
 Total                  166.831             61.592            125.182
 Electronic               0.000              0.000              0.000
 Translational            0.889              2.981             42.015
 Rotational               0.889              2.981             32.250
 Vibrational            165.054             55.631             50.918
 Vibration     1          0.595              1.980              5.121
 Vibration     2          0.598              1.970              4.222
 Vibration     3          0.601              1.960              3.793
 Vibration     4          0.609              1.933              3.115
 Vibration     5          0.619              1.899              2.633
 Vibration     6          0.622              1.889              2.531
 Vibration     7          0.628              1.872              2.368
 Vibration     8          0.636              1.846              2.173
 Vibration     9          0.639              1.837              2.116
 Vibration    10          0.660              1.772              1.769
 Vibration    11          0.671              1.738              1.630
 Vibration    12          0.674              1.728              1.594
 Vibration    13          0.692              1.675              1.420
 Vibration    14          0.704              1.639              1.320
 Vibration    15          0.709              1.627              1.289
 Vibration    16          0.716              1.606              1.237
 Vibration    17          0.725              1.581              1.179
 Vibration    18          0.732              1.563              1.139
 Vibration    19          0.751              1.510              1.033
 Vibration    20          0.761              1.482              0.983
 Vibration    21          0.768              1.465              0.955
 Vibration    22          0.778              1.440              0.912
 Vibration    23          0.812              1.352              0.784
 Vibration    24          0.821              1.332              0.757
 Vibration    25          0.845              1.273              0.685
 Vibration    26          0.906              1.139              0.543
 Vibration    27          0.959              1.031              0.449

 Optimization completed.
    -- Stationary point found.
 Normal termination of Gaussian 09 at Tue Jan 31 06:58:10 2017.
