 Gaussian 09, Revision E.01,
 Gaussian 09:  ES64L-G09RevE.01 30-Nov-2015

 ----------------------------------------------------------------------
 # opt=(calcfc,ts,noeigentest,maxcycle=1000,cartesian) b3lyp 6-31g(d) f
 req
 ----------------------------------------------------------------------

 ------------------------------------------
 ./4/glo_2w_beta_boat4_b3lyp_631Gd_iopt.out
 ------------------------------------------
 Symbolic Z-matrix:
 Charge =  0 Multiplicity = 1

 SCF Done:  E(RB3LYP) =  -839.990558886     A.U. after   14 cycles
 Optimization completed.
    -- Stationary point found.
 Normal termination of Gaussian 09 at Mon Jan 30 06:41:31 2017.

 --------------------------------------------------------------------
 #N Geom=AllCheck Guess=TCheck SCRF=Check GenChk RB3LYP/6-31G(d) Freq
 --------------------------------------------------------------------

 Structure from the checkpoint file:  "/scratch/10499759.yak.local/Gau-25709.chk"
 ------------------------------------------
 ./4/glo_2w_beta_boat4_b3lyp_631Gd_iopt.out
 ------------------------------------------
 Charge =  0 Multiplicity = 1

                         Standard orientation:
 ---------------------------------------------------------------------
 Center     Atomic      Atomic             Coordinates (Angstroms)
 Number     Number       Type             X           Y           Z
 ---------------------------------------------------------------------
      1          8           0        0.451801    0.562140   -0.826352
      2          6           0       -1.316539   -0.092269    0.692538
      3          6           0        0.062180   -1.882849   -0.544682
      4          6           0       -0.824630   -1.558889    0.668928
      5          6           0        1.045570   -0.760020   -0.920152
      6          6           0       -0.966769    0.634261   -0.613982
      7          1           0       -1.716170   -2.192259    0.572248
      8          1           0       -1.498669    0.157101   -1.447522
      9          1           0       -0.765619    0.422641    1.498568
     10          1           0        1.340860   -0.870900   -1.977302
     11          6           0       -1.296619    2.130351   -0.574752
     12          1           0       -0.776769    2.604841    0.263468
     13          1           0       -0.953929    2.610721   -1.500752
     14          1           0        0.661770   -2.767340   -0.297122
     15          8           0        2.144700   -0.844900   -0.083502
     16          1           0        2.844481   -0.204460   -0.372592
     17          8           0       -2.691159    2.367981   -0.348422
     18          1           0       -3.174269    2.078972   -1.139462
     19          8           0       -0.835040   -2.147029   -1.625562
     20          1           0       -0.306450   -2.434309   -2.386552
     21          8           0       -0.084660   -1.890669    1.840808
     22          1           0       -0.691940   -1.791929    2.591088
     23          8           0       -2.711349   -0.104859    0.952028
     24          1           0       -3.019029    0.814001    0.833568
     25          8           0        1.856791    1.616490    1.437658
     26          1           0        1.915851    0.712220    1.793448
     27          1           0        1.325321    1.449960    0.630428
     28          8           0        3.928791    1.196369   -0.323842
     29          1           0        4.758581    0.964819    0.120508
     30          1           0        3.357821    1.578220    0.388038
 ---------------------------------------------------------------------

 SCF Done:  E(RB3LYP) =  -839.990558885     A.U. after    1 cycles

 The electronic state is 1-A.
 Alpha  occ. eigenvalues --  -19.17679 -19.16976 -19.16111 -19.14840 -19.14772
 Alpha  occ. eigenvalues --  -19.14509 -19.14436 -19.13698 -10.29246 -10.24771
 Alpha  occ. eigenvalues --  -10.24445 -10.24407 -10.23736 -10.23444  -1.07208
 Alpha  occ. eigenvalues --   -1.04575  -1.03382  -1.02262  -1.01370  -1.00871
 Alpha  occ. eigenvalues --   -1.00311  -0.99494  -0.77857  -0.76762  -0.69604
 Alpha  occ. eigenvalues --   -0.64807  -0.63259  -0.56516  -0.56158  -0.54183
 Alpha  occ. eigenvalues --   -0.53009  -0.52111  -0.51445  -0.50499  -0.49762
 Alpha  occ. eigenvalues --   -0.49439  -0.46701  -0.44849  -0.43302  -0.41464
 Alpha  occ. eigenvalues --   -0.40898  -0.40452  -0.39829  -0.38890  -0.38077
 Alpha  occ. eigenvalues --   -0.37056  -0.35964  -0.34769  -0.34400  -0.32802
 Alpha  occ. eigenvalues --   -0.31191  -0.29986  -0.29795  -0.29002  -0.28168
 Alpha  occ. eigenvalues --   -0.27571  -0.26970  -0.25048
 Alpha virt. eigenvalues --    0.04415   0.05363   0.06557   0.08333   0.09415
 Alpha virt. eigenvalues --    0.09804   0.11813   0.12800   0.13790   0.14651
 Alpha virt. eigenvalues --    0.15828   0.16061   0.16938   0.17713   0.19084

 Mulliken charges:
               1
     1  O   -0.552078
     2  C    0.107951
     3  C    0.060778
     4  C    0.126568
     5  C    0.351837
     6  C    0.081428
     7  H    0.163670
     8  H    0.152688
     9  H    0.118932
    10  H    0.110193
    11  C   -0.071036
    12  H    0.171894
    13  H    0.153682
    14  H    0.162659
    15  O   -0.654411
    16  H    0.429481
    17  O   -0.618521
    18  H    0.404274
    19  O   -0.630874
    20  H    0.396512
    21  O   -0.635556
    22  H    0.400573
    23  O   -0.666607
    24  H    0.412301
    25  O   -0.820960
    26  H    0.405826
    27  H    0.432095
    28  O   -0.808261
    29  H    0.396018
    30  H    0.418943
 Sum of Mulliken charges =  -0.00000

 Dipole moment (field-independent basis, Debye):
    X=              0.2183    Y=             -0.5239    Z=             -1.8879  Tot=              1.9714
 Quadrupole moment (field-independent basis, Debye-Ang):
   XX=            -79.0295   YY=            -88.1217   ZZ=            -75.8289
   XY=             -5.1484   XZ=              5.1179   YZ=              0.1396

  Exact polarizability: 104.841  -2.550  91.583   0.647   0.941  88.356
 Approx polarizability: 139.380  -2.298 120.313   3.206   1.843 126.860

 ******    1 imaginary frequencies (negative Signs) ******

                      1                      2                      3
                      A                      A                      A
 Frequencies --    -43.1491                45.5790                60.8348
 Red. masses --      6.4107                 5.8272                 5.6696
 Frc consts  --      0.0070                 0.0071                 0.0124
 IR Inten    --      1.4489                 1.1945                 4.9780

                      4                      5                      6
                      A                      A                      A
 Frequencies --     69.4258               101.5831               115.4039
 Red. masses --      5.9627                 5.3877                 4.7163
 Frc consts  --      0.0169                 0.0328                 0.0370
 IR Inten    --      4.1386                 3.4377                10.1754

                      7                      8                      9
                      A                      A                      A
 Frequencies --    155.9008               177.8673               183.6539
 Red. masses --      2.8375                 6.0223                 4.8043
 Frc consts  --      0.0406                 0.1123                 0.0955
 IR Inten    --      3.0672                 3.0835                13.5052

                     10                     11                     12
                      A                      A                      A
 Frequencies --    216.5122               232.2505               249.3019
 Red. masses --      4.9790                 3.8081                 4.4371
 Frc consts  --      0.1375                 0.1210                 0.1625
 IR Inten    --      7.0759                 0.4456                 8.5857

                     13                     14                     15
                      A                      A                      A
 Frequencies --    260.8685               281.1115               298.5255
 Red. masses --      3.9251                 1.3603                 1.2341
 Frc consts  --      0.1574                 0.0633                 0.0648
 IR Inten    --      6.6743                54.2928               112.2706

                     16                     17                     18
                      A                      A                      A
 Frequencies --    310.1461               334.7394               338.7591
 Red. masses --      3.3417                 1.5532                 1.3723
 Frc consts  --      0.1894                 0.1025                 0.0928
 IR Inten    --     15.7039                81.3632               118.4965

                     19                     20                     21
                      A                      A                      A
 Frequencies --    353.3132               366.4549               376.4152
 Red. masses --      1.1729                 2.8693                 2.3088
 Frc consts  --      0.0863                 0.2270                 0.1927
 IR Inten    --    153.1303                51.2007                60.0675

                     22                     23                     24
                      A                      A                      A
 Frequencies --    388.9949               416.0424               467.0302
 Red. masses --      1.2553                 5.0465                 3.8069
 Frc consts  --      0.1119                 0.5147                 0.4892
 IR Inten    --     56.7633                 1.0917                 1.2123

                     25                     26                     27
                      A                      A                      A
 Frequencies --    471.3328               514.2298               529.8272
 Red. masses --      4.3988                 4.1850                 4.9411
 Frc consts  --      0.5758                 0.6520                 0.8172
 IR Inten    --     19.7713                 3.1856                43.2629

                     28                     29                     30
                      A                      A                      A
 Frequencies --    563.3774               568.5617               633.0124
 Red. masses --      2.2987                 1.4708                 5.0535
 Frc consts  --      0.4299                 0.2801                 1.1931
 IR Inten    --     98.8435               139.1376                 0.1633

                     31                     32                     33
                      A                      A                      A
 Frequencies --    657.7687               752.7594               785.1258
 Red. masses --      1.1546                 1.0873                 2.6908
 Frc consts  --      0.2943                 0.3630                 0.9773
 IR Inten    --     85.2215               241.7063                58.2838

                     34                     35                     36
                      A                      A                      A
 Frequencies --    799.4885               878.7780               893.9146
 Red. masses --      1.3002                 3.4717                 2.0967
 Frc consts  --      0.4896                 1.5796                 0.9872
 IR Inten    --    125.5773                29.3421                37.5082

                     37                     38                     39
                      A                      A                      A
 Frequencies --    955.9523              1029.7476              1045.2195
 Red. masses --      2.4880                 3.8186                 2.8488
 Frc consts  --      1.3396                 2.3857                 1.8337
 IR Inten    --     32.5836               156.9848                20.8841

                     40                     41                     42
                      A                      A                      A
 Frequencies --   1058.2660              1067.8847              1079.4523
 Red. masses --      2.0400                 1.8466                 3.0964
 Frc consts  --      1.3461                 1.2407                 2.1258
 IR Inten    --    148.1121                 4.9851                43.3409

                     43                     44                     45
                      A                      A                      A
 Frequencies --   1082.1693              1096.7677              1101.9748
 Red. masses --      3.4497                 3.2410                 2.2561
 Frc consts  --      2.3803                 2.2970                 1.6142
 IR Inten    --     36.2036                95.3065                 9.6551

                     46                     47                     48
                      A                      A                      A
 Frequencies --   1125.2944              1151.0537              1175.3128
 Red. masses --      4.3768                 2.8949                 3.4956
 Frc consts  --      3.2655                 2.2598                 2.8450
 IR Inten    --    146.0082                21.9957                63.6965

                     49                     50                     51
                      A                      A                      A
 Frequencies --   1205.8585              1237.7025              1250.4594
 Red. masses --      1.3468                 1.0923                 1.2193
 Frc consts  --      1.1539                 0.9859                 1.1233
 IR Inten    --     55.6781                33.0053                29.4044

                     52                     53                     54
                      A                      A                      A
 Frequencies --   1297.5982              1321.8536              1330.4979
 Red. masses --      1.1747                 1.1255                 1.1789
 Frc consts  --      1.1654                 1.1587                 1.2295
 IR Inten    --     41.7761                52.5082                 5.4248

                     55                     56                     57
                      A                      A                      A
 Frequencies --   1350.2915              1355.5399              1380.7565
 Red. masses --      1.2810                 1.2858                 1.2496
 Frc consts  --      1.3761                 1.3920                 1.4036
 IR Inten    --      5.1119                22.7901                29.7619

                     58                     59                     60
                      A                      A                      A
 Frequencies --   1388.7653              1399.7145              1411.5010
 Red. masses --      1.2633                 1.2743                 1.3325
 Frc consts  --      1.4355                 1.4710                 1.5642
 IR Inten    --     59.2723                26.0643                11.1386

                     61                     62                     63
                      A                      A                      A
 Frequencies --   1426.3687              1444.6993              1458.3218
 Red. masses --      1.2934                 1.3708                 1.5546
 Frc consts  --      1.5504                 1.6857                 1.9480
 IR Inten    --     30.3253                16.0085                 6.7098

                     64                     65                     66
                      A                      A                      A
 Frequencies --   1484.4770              1522.5172              1537.0768
 Red. masses --      1.5433                 1.4248                 1.0899
 Frc consts  --      2.0037                 1.9460                 1.5172
 IR Inten    --     29.0924                17.7487                 2.0040

                     67                     68                     69
                      A                      A                      A
 Frequencies --   1746.7544              1755.2516              2975.5639
 Red. masses --      1.0807                 1.0723                 1.0830
 Frc consts  --      1.9428                 1.9464                 5.6494
 IR Inten    --    214.9177                30.1355                16.1869

                     70                     71                     72
                      A                      A                      A
 Frequencies --   2976.6773              3047.9654              3049.6856
 Red. masses --      1.0844                 1.0668                 1.0835
 Frc consts  --      5.6613                 5.8394                 5.9375
 IR Inten    --    110.0257                34.8534                22.9245

                     73                     74                     75
                      A                      A                      A
 Frequencies --   3055.3404              3067.8580              3117.6931
 Red. masses --      1.0835                 1.0861                 1.1028
 Frc consts  --      5.9594                 6.0226                 6.3156
 IR Inten    --     33.6632                25.5952                25.3902

                     76                     77                     78
                      A                      A                      A
 Frequencies --   3338.3215              3445.5329              3589.8268
 Red. masses --      1.0686                 1.0613                 1.0571
 Frc consts  --      7.0165                 7.4231                 8.0265
 IR Inten    --    426.6307               807.0567               291.4987

                     79                     80                     81
                      A                      A                      A
 Frequencies --   3641.9404              3735.1063              3741.5172
 Red. masses --      1.0655                 1.0662                 1.0663
 Frc consts  --      8.3269                 8.7635                 8.7946
 IR Inten    --    144.2099                24.0211                 8.0640

                     82                     83                     84
                      A                      A                      A
 Frequencies --   3742.6850              3743.7924              3793.7014
 Red. masses --      1.0664                 1.0684                 1.0682
 Frc consts  --      8.8009                 8.8227                 9.0582
 IR Inten    --     37.8362                37.8728                48.1644

 - Thermochemistry -
 -------------------
 Temperature   298.150 Kelvin.  Pressure   1.00000 Atm.
 Atom     1 has atomic number  8 and mass  15.99491

 Molecular mass:   216.08452 amu.
 Principal axes and moments of inertia in atomic units:
                           1         2         3
     Eigenvalues --  2531.970943556.435314506.27925
           X            0.99997   0.00436   0.00621
           Y           -0.00438   0.99998   0.00365
           Z           -0.00619  -0.00367   0.99997
 This molecule is an asymmetric top.
 Rotational symmetry number  1.
 Warning -- assumption of classical behavior for rotation
           may cause significant error
 Rotational temperatures (Kelvin)      0.03421     0.02435     0.01922
 Rotational constants (GHZ):           0.71278     0.50746     0.40049
    1 imaginary frequencies ignored.
 Zero-point vibrational energy     653084.5 (Joules/Mol)
                                  156.09094 (Kcal/Mol)
 Warning -- explicit consideration of  28 degrees of freedom as
           vibrations may cause significant error
 Vibrational temperatures:     65.58    87.53    99.89   146.16   166.04
          (Kelvin)            224.31   255.91   264.24   311.51   334.16
                              358.69   375.33   404.46   429.51   446.23
                              481.61   487.40   508.34   527.25   541.58
                              559.68   598.59   671.95   678.14   739.86
                              762.30   810.57   818.03   910.76   946.38
                             1083.05  1129.62  1150.28  1264.36  1286.14
                             1375.40  1481.58  1503.84  1522.61  1536.45
                             1553.09  1557.00  1578.00  1585.49  1619.05
                             1656.11  1691.01  1734.96  1780.78  1799.13
                             1866.95  1901.85  1914.29  1942.77  1950.32
                             1986.60  1998.12  2013.87  2030.83  2052.22
                             2078.60  2098.20  2135.83  2190.56  2211.51
                             2513.19  2525.41  4281.17  4282.77  4385.34
                             4387.81  4395.95  4413.96  4485.66  4803.09
                             4957.35  5164.95  5239.93  5373.98  5383.20
                             5384.88  5386.48  5458.28

 Zero-point correction=                           0.248747 (Hartree/Particle)
 Thermal correction to Energy=                    0.265369
 Thermal correction to Enthalpy=                  0.266313
 Thermal correction to Gibbs Free Energy=         0.205777
 Sum of electronic and zero-point Energies=           -839.741812
 Sum of electronic and thermal Energies=              -839.725190
 Sum of electronic and thermal Enthalpies=            -839.724246
 Sum of electronic and thermal Free Energies=         -839.784782

                     E (Thermal)             CV                S
                      KCal/Mol        Cal/Mol-Kelvin    Cal/Mol-Kelvin
 Total                  166.522             62.345            127.410
 Electronic               0.000              0.000              0.000
 Translational            0.889              2.981             42.015
 Rotational               0.889              2.981             32.073
 Vibrational            164.744             56.384             53.322
 Vibration     1          0.595              1.979              5.001
 Vibration     2          0.597              1.973              4.430
 Vibration     3          0.598              1.969              4.170
 Vibration     4          0.604              1.948              3.424
 Vibration     5          0.608              1.937              3.176
 Vibration     6          0.620              1.896              2.599
 Vibration     7          0.628              1.870              2.351
 Vibration     8          0.631              1.862              2.291
 Vibration     9          0.645              1.816              1.988
 Vibration    10          0.653              1.792              1.861
 Vibration    11          0.662              1.764              1.736
 Vibration    12          0.669              1.744              1.656
 Vibration    13          0.681              1.709              1.527
 Vibration    14          0.692              1.676              1.425
 Vibration    15          0.699              1.654              1.362
 Vibration    16          0.716              1.606              1.237
 Vibration    17          0.719              1.598              1.218
 Vibration    18          0.730              1.568              1.151
 Vibration    19          0.739              1.541              1.095
 Vibration    20          0.747              1.520              1.054
 Vibration    21          0.757              1.494              1.004
 Vibration    22          0.779              1.435              0.906
 Vibration    23          0.824              1.323              0.746
 Vibration    24          0.828              1.314              0.734
 Vibration    25          0.869              1.218              0.623
 Vibration    26          0.885              1.184              0.588
 Vibration    27          0.919              1.111              0.517
 Vibration    28          0.925              1.099              0.507

 Optimization completed.
    -- Stationary point found.
 Normal termination of Gaussian 09 at Mon Jan 30 07:00:14 2017.
