 Gaussian 09, Revision E.01,
 Gaussian 09:  ES64L-G09RevE.01 30-Nov-2015

 ----------------------------------------------------------------------
 # opt=(calcfc,ts,noeigentest,maxcycle=1000,cartesian) b3lyp 6-31g(d) f
 req
 ----------------------------------------------------------------------

 ------------------------------------------
 ./4/glo_1w_beta_boat4_b3lyp_631Gd_iopt.out
 ------------------------------------------
 Symbolic Z-matrix:
 Charge =  0 Multiplicity = 1

 SCF Done:  E(RB3LYP) =  -839.987984382     A.U. after   14 cycles
 SCF Done:  E(RB3LYP) =  -839.987984395     A.U. after    6 cycles
 Optimization completed.
    -- Stationary point found.
 Normal termination of Gaussian 09 at Tue Jan 31 06:46:56 2017.

 --------------------------------------------------------------------
 #N Geom=AllCheck Guess=TCheck SCRF=Check GenChk RB3LYP/6-31G(d) Freq
 --------------------------------------------------------------------

 Structure from the checkpoint file:  "/scratch/10501382.yak.local/Gau-4813.chk"
 ------------------------------------------
 ./4/glo_1w_beta_boat4_b3lyp_631Gd_iopt.out
 ------------------------------------------
 Charge =  0 Multiplicity = 1

                         Standard orientation:
 ---------------------------------------------------------------------
 Center     Atomic      Atomic             Coordinates (Angstroms)
 Number     Number       Type             X           Y           Z
 ---------------------------------------------------------------------
      1          8           0       -1.544339    0.242675    0.331123
      2          6           0        0.840432    0.543363   -0.357866
      3          6           0       -0.309039   -1.595291   -0.798842
      4          6           0        0.867163   -0.954374   -0.055459
      5          6           0       -1.618036   -0.801538   -0.642677
      6          6           0       -0.433876    1.154092    0.265577
      7          1           0        0.719256   -1.101745    1.027282
      8          1           0       -0.190293    1.373305    1.313057
      9          1           0        0.839623    0.676313   -1.449254
     10          1           0       -2.397433   -1.460458   -0.246756
     11          6           0       -0.839195    2.456886   -0.433569
     12          1           0       -1.027218    2.267187   -1.493434
     13          1           0       -1.756449    2.862922    0.012752
     14          1           0       -0.050244   -1.595340   -1.867633
     15          8           0       -1.952321   -0.282132   -1.908735
     16          1           0       -2.835782    0.114722   -1.837160
     17          8           0        0.235612    3.408674   -0.375240
     18          1           0        0.207856    3.833550    0.496622
     19          8           0       -0.532830   -2.916296   -0.339361
     20          1           0        0.338634   -3.347061   -0.377832
     21          8           0        2.013083   -1.636701   -0.514022
     22          1           0        2.777824   -1.398460    0.061235
     23          8           0        1.978935    1.215510    0.192732
     24          1           0        1.881280    2.147750   -0.078353
     25          8           0       -2.980443   -0.594075    2.706303
     26          1           0       -3.825553   -0.149850    2.546457
     27          1           0       -2.413785   -0.279323    1.979109
     28          8           0        3.963100   -0.497417    1.063501
     29          1           0        3.768061   -0.591963    2.008189
     30          1           0        3.473162    0.307727    0.792322
 ---------------------------------------------------------------------

 SCF Done:  E(RB3LYP) =  -839.987984395     A.U. after    1 cycles

 The electronic state is 1-A.
 Alpha  occ. eigenvalues --  -19.18764 -19.18376 -19.17282 -19.17232 -19.15182
 Alpha  occ. eigenvalues --  -19.14271 -19.13247 -19.11256 -10.29914 -10.25966
 Alpha  occ. eigenvalues --  -10.25696 -10.25172 -10.23889 -10.23796  -1.08784
 Alpha  occ. eigenvalues --   -1.05740  -1.04309  -1.02621  -1.02181  -1.01081
 Alpha  occ. eigenvalues --   -0.99795  -0.97297  -0.79568  -0.77682  -0.70634
 Alpha  occ. eigenvalues --   -0.64884  -0.64212  -0.57534  -0.56141  -0.55992
 Alpha  occ. eigenvalues --   -0.54170  -0.52996  -0.52221  -0.49985  -0.49693
 Alpha  occ. eigenvalues --   -0.48198  -0.46229  -0.45344  -0.44681  -0.43878
 Alpha  occ. eigenvalues --   -0.42857  -0.40971  -0.40498  -0.39019  -0.37770
 Alpha  occ. eigenvalues --   -0.36684  -0.35547  -0.34906  -0.34328  -0.33048
 Alpha  occ. eigenvalues --   -0.32426  -0.31264  -0.29935  -0.29430  -0.28075
 Alpha  occ. eigenvalues --   -0.27205  -0.26960  -0.25611
 Alpha virt. eigenvalues --    0.02869   0.04944   0.06531   0.07043   0.09768
 Alpha virt. eigenvalues --    0.10157   0.10697   0.11835   0.12719   0.13595
 Alpha virt. eigenvalues --    0.14163   0.15502   0.15628   0.16977   0.18081

 Mulliken charges:
               1
     1  O   -0.531740
     2  C    0.094769
     3  C    0.126761
     4  C    0.091064
     5  C    0.300105
     6  C    0.119214
     7  H    0.125922
     8  H    0.141877
     9  H    0.148051
    10  H    0.171143
    11  C   -0.081003
    12  H    0.175717
    13  H    0.143502
    14  H    0.159935
    15  O   -0.610990
    16  H    0.397930
    17  O   -0.619587
    18  H    0.404848
    19  O   -0.646853
    20  H    0.408725
    21  O   -0.681815
    22  H    0.433263
    23  O   -0.678429
    24  H    0.418462
    25  O   -0.824496
    26  H    0.371178
    27  H    0.415113
    28  O   -0.800708
    29  H    0.395362
    30  H    0.432677
 Sum of Mulliken charges =  -0.00000

 Dipole moment (field-independent basis, Debye):
    X=             -1.5925    Y=              5.1459    Z=              0.4464  Tot=              5.4052
 Quadrupole moment (field-independent basis, Debye-Ang):
   XX=            -83.8122   YY=            -80.5710   ZZ=            -90.0499
   XY=             -5.5331   XZ=             12.2916   YZ=              6.3777

  Exact polarizability: 101.287  -1.549  98.112   4.373   0.953  82.596
 Approx polarizability: 131.564  -0.100 125.665   2.269   0.408 123.004

 ******    1 imaginary frequencies (negative Signs) ******

                      1                      2                      3
                      A                      A                      A
 Frequencies --    -41.8363                16.5219                37.0163
 Red. masses --      9.0308                 6.5660                 5.7626
 Frc consts  --      0.0093                 0.0011                 0.0047
 IR Inten    --     12.7694                 2.4730                 0.1983

                      4                      5                      6
                      A                      A                      A
 Frequencies --     49.5939                90.3290               105.5639
 Red. masses --      5.8829                 6.2731                 5.9330
 Frc consts  --      0.0085                 0.0302                 0.0390
 IR Inten    --      1.0427                 1.6939                 2.6788

                      7                      8                      9
                      A                      A                      A
 Frequencies --    116.3039               134.6209               145.0304
 Red. masses --      1.0936                 4.3631                 4.1188
 Frc consts  --      0.0087                 0.0466                 0.0510
 IR Inten    --     80.0992                 6.2671                 4.3697

                     10                     11                     12
                      A                      A                      A
 Frequencies --    170.6409               180.7750               234.3934
 Red. masses --      3.7470                 7.1316                 3.6236
 Frc consts  --      0.0643                 0.1373                 0.1173
 IR Inten    --     18.5749                10.8517                11.3041

                     13                     14                     15
                      A                      A                      A
 Frequencies --    240.8384               255.5839               282.2754
 Red. masses --      2.1052                 1.5708                 1.4459
 Frc consts  --      0.0719                 0.0605                 0.0679
 IR Inten    --     30.9391                68.1267                25.0893

                     16                     17                     18
                      A                      A                      A
 Frequencies --    285.4825               312.2246               323.6126
 Red. masses --      2.2115                 1.2321                 2.0562
 Frc consts  --      0.1062                 0.0708                 0.1269
 IR Inten    --     57.2562               157.2284                59.7956

                     19                     20                     21
                      A                      A                      A
 Frequencies --    337.6621               338.4208               377.0414
 Red. masses --      2.2506                 2.1257                 3.3507
 Frc consts  --      0.1512                 0.1434                 0.2806
 IR Inten    --     24.5577                24.4210                30.1700

                     22                     23                     24
                      A                      A                      A
 Frequencies --    403.3385               415.1208               459.5026
 Red. masses --      4.6483                 1.6410                 1.8426
 Frc consts  --      0.4455                 0.1666                 0.2292
 IR Inten    --     12.9733                67.4199                72.9966

                     25                     26                     27
                      A                      A                      A
 Frequencies --    464.0141               478.5217               507.0002
 Red. masses --      2.8615                 1.9559                 3.9795
 Frc consts  --      0.3630                 0.2639                 0.6027
 IR Inten    --     16.4014                75.4547                 9.7799

                     28                     29                     30
                      A                      A                      A
 Frequencies --    542.9343               556.8323               583.6840
 Red. masses --      3.1115                 1.4479                 2.7798
 Frc consts  --      0.5404                 0.2645                 0.5580
 IR Inten    --     23.5903                71.8640                29.1481

                     31                     32                     33
                      A                      A                      A
 Frequencies --    602.2506               614.8324               700.4428
 Red. masses --      1.1311                 2.9644                 1.1369
 Frc consts  --      0.2417                 0.6602                 0.3286
 IR Inten    --     81.0497                15.2666               365.8623

                     34                     35                     36
                      A                      A                      A
 Frequencies --    764.1651               903.4014               912.1730
 Red. masses --      5.0705                 1.5227                 1.4276
 Frc consts  --      1.7445                 0.7322                 0.6998
 IR Inten    --     32.0457                43.8069                78.7350

                     37                     38                     39
                      A                      A                      A
 Frequencies --    933.5945              1002.4795              1012.9070
 Red. masses --      2.9182                 3.1809                 3.8023
 Frc consts  --      1.4986                 1.8834                 2.2984
 IR Inten    --     56.5247                 3.1246                 3.5102

                     40                     41                     42
                      A                      A                      A
 Frequencies --   1042.4183              1049.8196              1060.6958
 Red. masses --      4.7890                 5.1107                 3.8576
 Frc consts  --      3.0661                 3.3187                 2.5571
 IR Inten    --    134.1454               118.8338               181.5561

                     43                     44                     45
                      A                      A                      A
 Frequencies --   1083.4190              1110.2183              1123.1617
 Red. masses --      2.1639                 3.1660                 2.6981
 Frc consts  --      1.4965                 2.2992                 2.0054
 IR Inten    --     43.4344               100.6580                 2.8155

                     46                     47                     48
                      A                      A                      A
 Frequencies --   1137.5981              1148.4853              1157.2216
 Red. masses --      2.8330                 3.7842                 4.0844
 Frc consts  --      2.1601                 2.9409                 3.2226
 IR Inten    --     59.2969                76.8698                61.5338

                     49                     50                     51
                      A                      A                      A
 Frequencies --   1191.4703              1231.6726              1262.9327
 Red. masses --      1.6270                 1.1717                 1.2157
 Frc consts  --      1.3608                 1.0473                 1.1424
 IR Inten    --      7.3682                21.0348                29.5505

                     52                     53                     54
                      A                      A                      A
 Frequencies --   1295.1544              1303.1874              1333.6388
 Red. masses --      1.1580                 1.1344                 1.2490
 Frc consts  --      1.1445                 1.1350                 1.3088
 IR Inten    --     86.3016                 9.5918                 8.4682

                     55                     56                     57
                      A                      A                      A
 Frequencies --   1359.7171              1381.7944              1396.1296
 Red. masses --      1.1702                 1.2869                 1.2576
 Frc consts  --      1.2747                 1.4477                 1.4443
 IR Inten    --      1.4350                17.1901                13.5747

                     58                     59                     60
                      A                      A                      A
 Frequencies --   1403.3379              1406.8592              1411.9462
 Red. masses --      1.2278                 1.2701                 1.2569
 Frc consts  --      1.4246                 1.4811                 1.4763
 IR Inten    --     53.6288                16.4462                28.8207

                     61                     62                     63
                      A                      A                      A
 Frequencies --   1417.0908              1429.3453              1469.0410
 Red. masses --      1.3928                 1.3206                 1.4273
 Frc consts  --      1.6479                 1.5897                 1.8148
 IR Inten    --     39.7825                30.3413                 9.7131

                     64                     65                     66
                      A                      A                      A
 Frequencies --   1487.0249              1502.0092              1540.0590
 Red. masses --      1.6542                 1.3584                 1.0836
 Frc consts  --      2.1551                 1.8056                 1.5142
 IR Inten    --     12.7830                40.1064                 1.1781

                     67                     68                     69
                      A                      A                      A
 Frequencies --   1716.9972              1725.2506              2993.1321
 Red. masses --      1.0771                 1.0794                 1.0823
 Frc consts  --      1.8708                 1.8929                 5.7127
 IR Inten    --     64.4539                67.6396                20.1158

                     70                     71                     72
                      A                      A                      A
 Frequencies --   3026.9190              3036.4090              3049.1501
 Red. masses --      1.0838                 1.0846                 1.0714
 Frc consts  --      5.8505                 5.8916                 5.8690
 IR Inten    --      1.5139                43.2706                50.6283

                     73                     74                     75
                      A                      A                      A
 Frequencies --   3054.0616              3097.2047              3136.1530
 Red. masses --      1.0816                 1.0880                 1.1009
 Frc consts  --      5.9437                 6.1494                 6.3798
 IR Inten    --     34.1515                20.5389                19.5200

                     76                     77                     78
                      A                      A                      A
 Frequencies --   3449.6608              3589.8363              3659.6592
 Red. masses --      1.0674                 1.0560                 1.0653
 Frc consts  --      7.4842                 8.0180                 8.4065
 IR Inten    --    467.9962               514.9073               111.6739

                     79                     80                     81
                      A                      A                      A
 Frequencies --   3670.6593              3715.8274              3732.6544
 Red. masses --      1.0499                 1.0652                 1.0657
 Frc consts  --      8.3343                 8.6657                 8.7484
 IR Inten    --    230.5509                36.9832                22.1944

                     82                     83                     84
                      A                      A                      A
 Frequencies --   3743.5042              3800.2338              3816.4642
 Red. masses --      1.0665                 1.0716                 1.0765
 Frc consts  --      8.8058                 9.1180                 9.2383
 IR Inten    --     27.8974                68.4333                90.4348

 - Thermochemistry -
 -------------------
 Temperature   298.150 Kelvin.  Pressure   1.00000 Atm.
 Atom     1 has atomic number  8 and mass  15.99491

 Molecular mass:   216.08452 amu.
 Principal axes and moments of inertia in atomic units:
                           1         2         3
     Eigenvalues --  3025.761673625.675064857.71264
           X            0.99961  -0.02769   0.00468
           Y            0.02768   0.99962   0.00159
           Z           -0.00472  -0.00146   0.99999
 This molecule is an asymmetric top.
 Rotational symmetry number  1.
 Warning -- assumption of classical behavior for rotation
           may cause significant error
 Rotational temperatures (Kelvin)      0.02863     0.02389     0.01783
 Rotational constants (GHZ):           0.59646     0.49777     0.37152
    1 imaginary frequencies ignored.
 Zero-point vibrational energy     649813.6 (Joules/Mol)
                                  155.30918 (Kcal/Mol)
 Warning -- explicit consideration of  31 degrees of freedom as
           vibrations may cause significant error
 Vibrational temperatures:     23.77    53.26    71.35   129.96   151.88
          (Kelvin)            167.34   193.69   208.67   245.51   260.09
                              337.24   346.51   367.73   406.13   410.75
                              449.22   465.61   485.82   486.91   542.48
                              580.31   597.27   661.12   667.61   688.49
                              729.46   781.16   801.16   839.79   866.50
                              884.61  1007.78  1099.46  1299.79  1312.41
                             1343.23  1442.34  1457.35  1499.81  1510.45
                             1526.10  1558.80  1597.35  1615.98  1636.75
                             1652.41  1664.98  1714.26  1772.10  1817.08
                             1863.44  1874.99  1918.81  1956.33  1988.09
                             2008.72  2019.09  2024.15  2031.47  2038.88
                             2056.51  2113.62  2139.49  2161.05  2215.80
                             2470.37  2482.25  4306.44  4355.06  4368.71
                             4387.04  4394.11  4456.18  4512.22  4963.29
                             5164.97  5265.43  5281.25  5346.24  5370.45
                             5386.06  5467.68  5491.03

 Zero-point correction=                           0.247501 (Hartree/Particle)
 Thermal correction to Energy=                    0.265129
 Thermal correction to Enthalpy=                  0.266073
 Thermal correction to Gibbs Free Energy=         0.201510
 Sum of electronic and zero-point Energies=           -839.740483
 Sum of electronic and thermal Energies=              -839.722855
 Sum of electronic and thermal Enthalpies=            -839.721911
 Sum of electronic and thermal Free Energies=         -839.786474

                     E (Thermal)             CV                S
                      KCal/Mol        Cal/Mol-Kelvin    Cal/Mol-Kelvin
 Total                  166.371             63.962            135.884
 Electronic               0.000              0.000              0.000
 Translational            0.889              2.981             42.015
 Rotational               0.889              2.981             32.344
 Vibrational            164.593             58.000             61.525
 Vibration     1          0.593              1.986              7.014
 Vibration     2          0.594              1.982              5.413
 Vibration     3          0.595              1.978              4.834
 Vibration     4          0.602              1.956              3.653
 Vibration     5          0.605              1.945              3.349
 Vibration     6          0.608              1.936              3.161
 Vibration     7          0.613              1.919              2.879
 Vibration     8          0.616              1.908              2.736
 Vibration     9          0.626              1.879              2.428
 Vibration    10          0.630              1.866              2.320
 Vibration    11          0.654              1.788              1.845
 Vibration    12          0.658              1.778              1.797
 Vibration    13          0.666              1.753              1.692
 Vibration    14          0.681              1.706              1.520
 Vibration    15          0.683              1.701              1.501
 Vibration    16          0.701              1.650              1.351
 Vibration    17          0.708              1.628              1.292
 Vibration    18          0.718              1.600              1.223
 Vibration    19          0.719              1.599              1.220
 Vibration    20          0.748              1.519              1.051
 Vibration    21          0.769              1.463              0.950
 Vibration    22          0.779              1.437              0.909
 Vibration    23          0.817              1.340              0.768
 Vibration    24          0.822              1.330              0.755
 Vibration    25          0.835              1.298              0.714
 Vibration    26          0.862              1.234              0.641
 Vibration    27          0.898              1.155              0.559
 Vibration    28          0.912              1.125              0.530
 Vibration    29          0.941              1.067              0.479
 Vibration    30          0.961              1.027              0.446
 Vibration    31          0.974              1.000              0.425

 Optimization completed.
    -- Stationary point found.
 Normal termination of Gaussian 09 at Tue Jan 31 07:04:36 2017.
