 Gaussian 09, Revision D.01,

 ----------------------------------------------------------------------
 # IRC=(CalcFC,Reverse,MaxCycle=1000,MaxPoints=10) B3LYP/6-31G(d) geom=
 allcheck guess=read
 ----------------------------------------------------------------------

 Structure from the checkpoint file:  "/home/iawad/scratch/MAIN/PRO_Halides/direct/ircro/glo_1w_ALPHA/glo_1w_ALPHA_ircro_B3LYP_6-31G_d_B3LYP_6-31G_d.chk"
 --------------------------
 glo_1w_ALPHA_B3LYP_6-31G_d
 --------------------------
 Charge =  0 Multiplicity = 1

 SCF Done:  E(RB3LYP) =  -839.959689633     A.U. after    6 cycles
 SCF Done:  E(RB3LYP) =  -839.960164746     A.U. after   11 cycles
 SCF Done:  E(RB3LYP) =  -839.961580891     A.U. after   11 cycles
 SCF Done:  E(RB3LYP) =  -839.963810390     A.U. after   12 cycles
 SCF Done:  E(RB3LYP) =  -839.966564139     A.U. after   12 cycles
 SCF Done:  E(RB3LYP) =  -839.969436722     A.U. after   12 cycles
 SCF Done:  E(RB3LYP) =  -839.972029418     A.U. after   12 cycles
 SCF Done:  E(RB3LYP) =  -839.974210899     A.U. after   11 cycles
 SCF Done:  E(RB3LYP) =  -839.976132546     A.U. after   11 cycles
 SCF Done:  E(RB3LYP) =  -839.977915033     A.U. after   11 cycles
 Normal termination of Gaussian 09 at Wed Jun  8 18:14:20 2016.
 Gaussian 09:  AM64L-G09RevD.01 24-Apr-2013

 ---------------------------------------------------
 #N Geom=AllCheck Guess=Read OPT FREQ B3LYP 6-31G(d)
 ---------------------------------------------------

 Structure from the checkpoint file:  "/home/iawad/scratch/MAIN/PRO_Halides/direct/ircro/glo_1w_ALPHA/glo_1w_ALPHA_ircro_B3LYP_6-31G_d_B3LYP_6-31G_d.chk"
 --------------------------
 glo_1w_ALPHA_B3LYP_6-31G_d
 --------------------------
 Charge =  0 Multiplicity = 1

 SCF Done:  E(RB3LYP) =  -840.003616080     A.U. after    8 cycles
 SCF Done:  E(RB3LYP) =  -840.003617375     A.U. after    7 cycles
 SCF Done:  E(RB3LYP) =  -840.003617601     A.U. after    7 cycles
 SCF Done:  E(RB3LYP) =  -840.003618208     A.U. after    7 cycles
 SCF Done:  E(RB3LYP) =  -840.003618704     A.U. after    7 cycles
 SCF Done:  E(RB3LYP) =  -840.003619224     A.U. after    7 cycles
 SCF Done:  E(RB3LYP) =  -840.003620201     A.U. after    7 cycles
 SCF Done:  E(RB3LYP) =  -840.003620868     A.U. after    7 cycles
 SCF Done:  E(RB3LYP) =  -840.003621040     A.U. after    6 cycles
 Optimization completed.
    -- Stationary point found.
 Normal termination of Gaussian 09 at Wed Jun  8 20:38:14 2016.

 --------------------------------------------------------------------
 #N Geom=AllCheck Guess=TCheck SCRF=Check GenChk RB3LYP/6-31G(d) Freq
 --------------------------------------------------------------------

 Structure from the checkpoint file:  "/home/iawad/scratch/MAIN/PRO_Halides/direct/ircro/glo_1w_ALPHA/glo_1w_ALPHA_ircro_B3LYP_6-31G_d_B3LYP_6-31G_d.chk"
 --------------------------
 glo_1w_ALPHA_B3LYP_6-31G_d
 --------------------------
 Charge =  0 Multiplicity = 1

                         Standard orientation:
 ---------------------------------------------------------------------
 Center     Atomic      Atomic             Coordinates (Angstroms)
 Number     Number       Type             X           Y           Z
 ---------------------------------------------------------------------
      1          6           0       -1.414834   -1.265367   -0.239642
      2          8           0       -1.551246    0.097923   -0.722629
      3          1           0       -4.744985   -0.385291    0.250719
      4          8           0       -3.994565    0.015423    0.714973
      5          1           0       -3.390943    0.322635    0.009194
      6          6           0       -0.017613   -1.753665   -0.610416
      7          6           0        1.052439   -0.865876    0.033449
      8          6           0        0.807934    0.599324   -0.352122
      9          6           0       -0.651360    1.024884   -0.097220
     10          1           0        0.074551   -1.641526   -1.703979
     11          1           0        1.053483    0.726957   -1.411726
     12          1           0       -0.831977    1.035633    0.987693
     13          1           0        0.968264   -0.967825    1.127237
     14          8           0        0.146604   -3.101092   -0.231061
     15          8           0        2.291886   -1.367692   -0.433635
     16          8           0        1.711014    1.503836    0.339295
     17          1           0        3.023067   -0.967671    0.090748
     18          1           0        1.103543   -3.263935   -0.304452
     19          1           0        1.463933    1.492750    1.281531
     20          6           0       -0.982046    2.412411   -0.661505
     21          8           0       -0.303600    3.449744    0.022682
     22          1           0       -2.052852    2.598873   -0.531444
     23          1           0       -0.772247    2.421304   -1.743889
     24          1           0        0.645417    3.245086   -0.033612
     25          1           0       -2.177825   -1.812161   -0.807728
     26          8           0       -1.616804   -1.351133    1.128245
     27          1           0       -2.546907   -1.072028    1.285064
     28          8           0        4.193803    0.262124    0.743794
     29          1           0        4.882961    0.351843    0.067695
     30          1           0        3.518661    0.932021    0.508365
 ---------------------------------------------------------------------

 SCF Done:  E(RB3LYP) =  -840.003621040     A.U. after    1 cycles

 The electronic state is 1-A.
 Alpha  occ. eigenvalues --  -19.20088 -19.17597 -19.16309 -19.16176 -19.14775
 Alpha  occ. eigenvalues --  -19.14457 -19.14142 -19.13834 -10.29013 -10.25886
 Alpha  occ. eigenvalues --  -10.25230 -10.24186 -10.23911 -10.23759  -1.07947
 Alpha  occ. eigenvalues --   -1.06429  -1.03103  -1.02070  -1.01973  -1.01761
 Alpha  occ. eigenvalues --   -1.00732  -0.99980  -0.79096  -0.77238  -0.69188
 Alpha  occ. eigenvalues --   -0.65350  -0.62707  -0.59045  -0.55623  -0.54608
 Alpha  occ. eigenvalues --   -0.54245  -0.53455  -0.52356  -0.51873  -0.49957
 Alpha  occ. eigenvalues --   -0.47743  -0.45870  -0.44901  -0.44349  -0.43396
 Alpha  occ. eigenvalues --   -0.42485  -0.40605  -0.40317  -0.39719  -0.38135
 Alpha  occ. eigenvalues --   -0.37656  -0.36578  -0.35479  -0.34845  -0.32527
 Alpha  occ. eigenvalues --   -0.31855  -0.31473  -0.30507  -0.29519  -0.28389
 Alpha  occ. eigenvalues --   -0.27587  -0.26751  -0.25827
 Alpha virt. eigenvalues --    0.02973   0.05076   0.07127   0.08108   0.09270
 Alpha virt. eigenvalues --    0.10582   0.11308   0.13107   0.13493   0.14713
 Alpha virt. eigenvalues --    0.15077   0.16377   0.16733   0.17506   0.18684

 Mulliken charges:
               1
     1  C    0.294478
     2  O   -0.538843
     3  H    0.399784
     4  O   -0.801787
     5  H    0.422282
     6  C    0.154491
     7  C    0.077770
     8  C    0.083399
     9  C    0.100708
    10  H    0.124896
    11  H    0.156809
    12  H    0.142962
    13  H    0.140661
    14  O   -0.640054
    15  O   -0.689554
    16  O   -0.654871
    17  H    0.426056
    18  H    0.409915
    19  H    0.412949
    20  C   -0.041569
    21  O   -0.632039
    22  H    0.154893
    23  H    0.127927
    24  H    0.404761
    25  H    0.135063
    26  O   -0.625188
    27  H    0.431476
    28  O   -0.799233
    29  H    0.401440
    30  H    0.420417
 Sum of Mulliken charges =   0.00000

 Dipole moment (field-independent basis, Debye):
    X=              0.5624    Y=              1.1323    Z=             -2.1467  Tot=              2.4913
 Quadrupole moment (field-independent basis, Debye-Ang):
   XX=            -66.3900   YY=            -98.2549   ZZ=            -85.2300
   XY=              7.5169   XZ=              2.1163   YZ=              0.8116

  Exact polarizability: 111.011   0.839  98.465   0.765   1.130  77.063
 Approx polarizability: 138.628   2.265 127.573   0.687   1.754 121.809

                      1                      2                      3
                      A                      A                      A
 Frequencies --     36.5198                52.8973                66.8639
 Red. masses --      5.8198                 5.6689                 5.7666
 Frc consts  --      0.0046                 0.0093                 0.0152
 IR Inten    --      1.8692                 2.5609                 6.3227

                      4                      5                      6
                      A                      A                      A
 Frequencies --     98.4737               116.5581               136.4834
 Red. masses --      5.9839                 3.9433                 5.0407
 Frc consts  --      0.0342                 0.0316                 0.0553
 IR Inten    --      2.2280                 0.6115                 3.0215

                      7                      8                      9
                      A                      A                      A
 Frequencies --    141.6794               174.7407               178.1055
 Red. masses --      6.0604                 5.1707                 4.9392
 Frc consts  --      0.0717                 0.0930                 0.0923
 IR Inten    --      6.0557                10.6304                29.1140

                     10                     11                     12
                      A                      A                      A
 Frequencies --    191.0130               218.6624               249.8383
 Red. masses --      4.4734                 3.5629                 1.2852
 Frc consts  --      0.0962                 0.1004                 0.0473
 IR Inten    --     10.4040                 9.4189               190.2431

                     13                     14                     15
                      A                      A                      A
 Frequencies --    268.8355               276.4721               280.8438
 Red. masses --      1.2088                 3.2610                 3.1577
 Frc consts  --      0.0515                 0.1469                 0.1467
 IR Inten    --     81.8686                11.8190                24.7149

                     16                     17                     18
                      A                      A                      A
 Frequencies --    308.4139               329.2561               348.6002
 Red. masses --      2.8482                 2.0745                 1.2704
 Frc consts  --      0.1596                 0.1325                 0.0910
 IR Inten    --    125.4626                53.3598               103.6188

                     19                     20                     21
                      A                      A                      A
 Frequencies --    364.0080               372.6548               393.3115
 Red. masses --      4.0897                 2.8922                 5.5299
 Frc consts  --      0.3193                 0.2366                 0.5040
 IR Inten    --     51.8216                54.7930                14.6066

                     22                     23                     24
                      A                      A                      A
 Frequencies --    429.5735               453.8261               463.2380
 Red. masses --      2.2519                 1.3665                 1.3083
 Frc consts  --      0.2448                 0.1658                 0.1654
 IR Inten    --     44.1560                30.1444                95.9394

                     25                     26                     27
                      A                      A                      A
 Frequencies --    485.9832               513.7177               553.5552
 Red. masses --      4.0170                 3.3784                 4.3658
 Frc consts  --      0.5590                 0.5253                 0.7882
 IR Inten    --     37.1750                 9.7737                26.1496

                     28                     29                     30
                      A                      A                      A
 Frequencies --    580.6315               599.9660               631.5355
 Red. masses --      3.1458                 1.1395                 1.2457
 Frc consts  --      0.6249                 0.2417                 0.2927
 IR Inten    --     50.2914                63.2034                95.4921

                     31                     32                     33
                      A                      A                      A
 Frequencies --    646.7146               666.7466               765.3326
 Red. masses --      3.2661                 1.0838                 3.5293
 Frc consts  --      0.8048                 0.2839                 1.2180
 IR Inten    --     36.7121               275.7612                30.4157

                     34                     35                     36
                      A                      A                      A
 Frequencies --    827.6239               850.7391               907.3823
 Red. masses --      1.1880                 1.0749                 1.7695
 Frc consts  --      0.4794                 0.4584                 0.8584
 IR Inten    --    104.7478               106.4385                30.8454

                     37                     38                     39
                      A                      A                      A
 Frequencies --    933.1845               958.8616              1004.7966
 Red. masses --      3.4785                 4.3240                 4.2751
 Frc consts  --      1.7847                 2.3423                 2.5430
 IR Inten    --     40.3050                89.7107                74.3625

                     40                     41                     42
                      A                      A                      A
 Frequencies --   1042.4710              1049.4557              1083.5981
 Red. masses --      5.0289                 5.4058                 2.3281
 Frc consts  --      3.2199                 3.5078                 1.6106
 IR Inten    --     59.9908               148.6315                51.0943

                     43                     44                     45
                      A                      A                      A
 Frequencies --   1099.3344              1112.1655              1131.2305
 Red. masses --      4.7859                 2.6131                 3.4792
 Frc consts  --      3.4078                 1.9043                 2.6232
 IR Inten    --    107.6081                26.6803                50.1480

                     46                     47                     48
                      A                      A                      A
 Frequencies --   1142.2435              1144.9257              1186.3540
 Red. masses --      2.4820                 3.6527                 3.1181
 Frc consts  --      1.9079                 2.8211                 2.5857
 IR Inten    --     18.5000                40.4320                74.9415

                     49                     50                     51
                      A                      A                      A
 Frequencies --   1213.3615              1233.7754              1268.7522
 Red. masses --      1.2143                 1.3368                 1.2399
 Frc consts  --      1.0533                 1.1989                 1.1759
 IR Inten    --     43.8792                21.1358                32.8712

                     52                     53                     54
                      A                      A                      A
 Frequencies --   1295.7395              1300.0698              1334.0684
 Red. masses --      1.2547                 1.1376                 1.2875
 Frc consts  --      1.2412                 1.1328                 1.3500
 IR Inten    --      4.7870                30.1434                23.6297

                     55                     56                     57
                      A                      A                      A
 Frequencies --   1343.1624              1387.2099              1403.5294
 Red. masses --      1.2448                 1.1903                 1.3288
 Frc consts  --      1.3232                 1.3496                 1.5422
 IR Inten    --      9.9733                21.3119                24.5758

                     58                     59                     60
                      A                      A                      A
 Frequencies --   1406.6448              1415.8423              1432.8986
 Red. masses --      1.2740                 1.3318                 1.2829
 Frc consts  --      1.4852                 1.5730                 1.5520
 IR Inten    --     14.4266                19.9009                34.4791

                     61                     62                     63
                      A                      A                      A
 Frequencies --   1439.8221              1458.7688              1465.5742
 Red. masses --      1.2700                 1.4322                 1.2596
 Frc consts  --      1.5512                 1.7957                 1.5941
 IR Inten    --     27.0191                69.2023                56.1962

                     64                     65                     66
                      A                      A                      A
 Frequencies --   1493.4419              1528.7875              1537.2083
 Red. masses --      1.3209                 1.5643                 1.0898
 Frc consts  --      1.7357                 2.1541                 1.5173
 IR Inten    --     19.1111                60.0935                 0.5242

                     67                     68                     69
                      A                      A                      A
 Frequencies --   1715.0620              1721.1190              2986.0945
 Red. masses --      1.0775                 1.0755                 1.0820
 Frc consts  --      1.8674                 1.8771                 5.6842
 IR Inten    --     51.7101                66.6672                24.6154

                     70                     71                     72
                      A                      A                      A
 Frequencies --   2996.0419              3013.3283              3031.3311
 Red. masses --      1.0714                 1.0839                 1.0826
 Frc consts  --      5.6660                 5.7986                 5.8612
 IR Inten    --     47.8805                26.6124                35.2729

                     73                     74                     75
                      A                      A                      A
 Frequencies --   3061.0845              3094.3967              3104.1423
 Red. masses --      1.0872                 1.0866                 1.0942
 Frc consts  --      6.0023                 6.1300                 6.2118
 IR Inten    --     60.3180                24.6600                38.6530

                     76                     77                     78
                      A                      A                      A
 Frequencies --   3473.5181              3518.2080              3593.0627
 Red. masses --      1.0675                 1.0651                 1.0559
 Frc consts  --      7.5885                 7.7677                 8.0316
 IR Inten    --    445.9773               230.7418               496.8955

                     79                     80                     81
                      A                      A                      A
 Frequencies --   3616.7745              3693.9451              3701.9002
 Red. masses --      1.0546                 1.0657                 1.0651
 Frc consts  --      8.1277                 8.5675                 8.5999
 IR Inten    --    271.5948                31.9062                46.0323

                     82                     83                     84
                      A                      A                      A
 Frequencies --   3703.4876              3799.1258              3806.4247
 Red. masses --      1.0656                 1.0723                 1.0739
 Frc consts  --      8.6111                 9.1191                 9.1673
 IR Inten    --     55.0087                91.4860                83.4103

 - Thermochemistry -
 -------------------
 Temperature   298.150 Kelvin.  Pressure   1.00000 Atm.
 Atom     1 has atomic number  6 and mass  12.00000

 Molecular mass:   216.08452 amu.
 Principal axes and moments of inertia in atomic units:
                           1         2         3
     Eigenvalues --  2568.328563544.261585552.49407
           X            0.99997   0.00658   0.00269
           Y           -0.00657   0.99998  -0.00125
           Z           -0.00269   0.00123   1.00000
 This molecule is an asymmetric top.
 Rotational symmetry number  1.
 Warning -- assumption of classical behavior for rotation
           may cause significant error
 Rotational temperatures (Kelvin)      0.03372     0.02444     0.01560
 Rotational constants (GHZ):           0.70269     0.50920     0.32503
 Zero-point vibrational energy     654699.0 (Joules/Mol)
                                  156.47681 (Kcal/Mol)
 Warning -- explicit consideration of  29 degrees of freedom as
           vibrations may cause significant error
 Vibrational temperatures:     52.54    76.11    96.20   141.68   167.70
          (Kelvin)            196.37   203.84   251.41   256.25   274.82
                              314.61   359.46   386.79   397.78   404.07
                              443.74   473.73   501.56   523.73   536.17
                              565.89   618.06   652.95   666.50   699.22
                              739.12   796.44   835.40   863.22   908.64
                              930.48   959.30  1101.14  1190.76  1224.02
                             1305.52  1342.64  1379.59  1445.68  1499.88
                             1509.93  1559.05  1581.70  1600.16  1627.59
                             1643.43  1647.29  1706.90  1745.75  1775.13
                             1825.45  1864.28  1870.51  1919.42  1932.51
                             1995.88  2019.36  2023.85  2037.08  2061.62
                             2071.58  2098.84  2108.63  2148.73  2199.58
                             2211.70  2467.59  2476.30  4296.32  4310.63
                             4335.50  4361.40  4404.21  4452.14  4466.16
                             4997.61  5061.91  5169.61  5203.73  5314.76
                             5326.20  5328.49  5466.09  5476.59

 Zero-point correction=                           0.249362 (Hartree/Particle)
 Thermal correction to Energy=                    0.266703
 Thermal correction to Enthalpy=                  0.267647
 Thermal correction to Gibbs Free Energy=         0.205134
 Sum of electronic and zero-point Energies=           -839.754259
 Sum of electronic and thermal Energies=              -839.736918
 Sum of electronic and thermal Enthalpies=            -839.735974
 Sum of electronic and thermal Free Energies=         -839.798487

                     E (Thermal)             CV                S
                      KCal/Mol        Cal/Mol-Kelvin    Cal/Mol-Kelvin
 Total                  167.359             64.216            131.570
 Electronic               0.000              0.000              0.000
 Translational            0.889              2.981             42.015
 Rotational               0.889              2.981             32.291
 Vibrational            165.581             58.254             57.264
 Vibration     1          0.594              1.982              5.439
 Vibration     2          0.596              1.976              4.706
 Vibration     3          0.598              1.970              4.244
 Vibration     4          0.604              1.950              3.484
 Vibration     5          0.608              1.936              3.157
 Vibration     6          0.614              1.917              2.853
 Vibration     7          0.615              1.912              2.781
 Vibration     8          0.627              1.874              2.384
 Vibration     9          0.629              1.869              2.348
 Vibration    10          0.634              1.852              2.218
 Vibration    11          0.646              1.813              1.970
 Vibration    12          0.663              1.763              1.732
 Vibration    13          0.673              1.730              1.604
 Vibration    14          0.678              1.717              1.555
 Vibration    15          0.681              1.709              1.529
 Vibration    16          0.698              1.658              1.371
 Vibration    17          0.712              1.617              1.264
 Vibration    18          0.726              1.578              1.173
 Vibration    19          0.738              1.546              1.105
 Vibration    20          0.744              1.528              1.069
 Vibration    21          0.761              1.484              0.988
 Vibration    22          0.791              1.406              0.860
 Vibration    23          0.812              1.352              0.784
 Vibration    24          0.821              1.332              0.757
 Vibration    25          0.842              1.281              0.694
 Vibration    26          0.869              1.220              0.625
 Vibration    27          0.909              1.132              0.537
 Vibration    28          0.937              1.073              0.484
 Vibration    29          0.958              1.032              0.450

 Normal termination of Gaussian 09 at Wed Jun  8 21:28:55 2016.
