 Gaussian 09, Revision E.01,
 Gaussian 09:  ES64L-G09RevE.01 30-Nov-2015

 ---------------------------------------------------------------
 # IRC=(CalcFC,Reverse,MaxCycle=500,MaxPoints=10) B3LYP/6-31G(d)
 ---------------------------------------------------------------

 --------------------------------------
 glo_2w_alpha_ts_chair2_B3LYP_631Gd.out
 --------------------------------------
 Symbolic Z-matrix:
 Charge =  0 Multiplicity = 1

 SCF Done:  E(RB3LYP) =  -839.969547559     A.U. after   14 cycles
 SCF Done:  E(RB3LYP) =  -839.969759250     A.U. after   11 cycles
 SCF Done:  E(RB3LYP) =  -839.970307152     A.U. after   11 cycles
 SCF Done:  E(RB3LYP) =  -839.971023031     A.U. after   12 cycles
 SCF Done:  E(RB3LYP) =  -839.971745566     A.U. after   11 cycles
 SCF Done:  E(RB3LYP) =  -839.972444007     A.U. after   11 cycles
 SCF Done:  E(RB3LYP) =  -839.973113561     A.U. after   11 cycles
 SCF Done:  E(RB3LYP) =  -839.973760529     A.U. after   11 cycles
 SCF Done:  E(RB3LYP) =  -839.974369019     A.U. after   11 cycles
 SCF Done:  E(RB3LYP) =  -839.974395038     A.U. after   10 cycles
 SCF Done:  E(RB3LYP) =  -839.975008408     A.U. after   11 cycles
 SCF Done:  E(RB3LYP) =  -839.975618053     A.U. after   11 cycles

                          Input orientation:
 ---------------------------------------------------------------------
 Center     Atomic      Atomic             Coordinates (Angstroms)
 Number     Number       Type             X           Y           Z
 ---------------------------------------------------------------------
      1          6           0       -0.857156   -0.697123   -0.707938
      2          8           0       -0.592665    0.359193    0.596618
      3          6           0        0.352797   -1.637494   -0.612849
      4          6           0        1.729221   -0.985732   -0.410592
      5          6           0        1.755015   -0.041573    0.799708
      6          6           0        0.670805    1.047840    0.727278
      7          1           0        0.364639   -2.181470   -1.576894
      8          1           0        2.723343    0.465156    0.832754
      9          1           0        0.654153    1.517942    1.716246
     10          1           0        2.462153   -1.781720   -0.223228
     11          8           0        0.100895   -2.539283    0.452965
     12          8           0        2.098847   -0.223805   -1.568134
     13          8           0        1.636249   -0.788329    1.996067
     14          1           0        2.218931   -0.829170   -2.316002
     15          1           0       -0.884886   -2.546838    0.490684
     16          1           0        0.946481   -1.462974    1.835174
     17          6           0        0.839097    2.127818   -0.369185
     18          8           0        2.194397    2.470323   -0.588658
     19          1           0        0.326474    3.040797   -0.048880
     20          1           0        0.359572    1.793974   -1.297338
     21          1           0        2.563335    1.736582   -1.111878
     22          1           0       -0.812089    0.019568   -1.540731
     23          8           0       -1.960080   -1.288741   -0.450962
     24          1           0       -3.182390   -0.441917   -0.752001
     25          1           0       -1.447957    0.960158    0.738428
     26          8           0       -3.892864    0.287576   -0.792867
     27          1           0       -4.717946   -0.136728   -0.514636
     28          8           0       -2.655607    1.682043    0.895383
     29          1           0       -3.004787    1.499758    1.781381
     30          1           0       -3.287399    1.215304    0.238883
 ---------------------------------------------------------------------

 Alpha  occ. eigenvalues --  -19.19285 -19.18226 -19.16738 -19.15584 -19.14485
 Alpha  occ. eigenvalues --  -19.13814 -19.13222 -19.11446 -10.29229 -10.25495
 Alpha  occ. eigenvalues --  -10.24893 -10.24712 -10.24047 -10.23228  -1.07780
 Alpha  occ. eigenvalues --   -1.05233  -1.03862  -1.02753  -1.01296  -1.01194
 Alpha  occ. eigenvalues --   -1.00358  -0.98351  -0.78440  -0.75284  -0.69550
 Alpha  occ. eigenvalues --   -0.65270  -0.62472  -0.58682  -0.55623  -0.55317
 Alpha  occ. eigenvalues --   -0.53666  -0.52754  -0.52033  -0.51333  -0.49038
 Alpha  occ. eigenvalues --   -0.48023  -0.47607  -0.46440  -0.44169  -0.42885
 Alpha  occ. eigenvalues --   -0.42411  -0.41342  -0.40826  -0.39295  -0.37512
 Alpha  occ. eigenvalues --   -0.36802  -0.35701  -0.34870  -0.33469  -0.32941
 Alpha  occ. eigenvalues --   -0.32310  -0.31095  -0.30564  -0.28240  -0.27744
 Alpha  occ. eigenvalues --   -0.26574  -0.25663  -0.24973
 Alpha virt. eigenvalues --    0.03427   0.04509   0.05672   0.08717   0.09475
 Alpha virt. eigenvalues --    0.10441   0.11178   0.11937   0.13034   0.14205
 Alpha virt. eigenvalues --    0.14988   0.16123   0.18525   0.18643   0.19681

 Mulliken charges:
               1
     1  C    0.340230
     2  O   -0.640020
     3  C    0.089793
     4  C    0.077343
     5  C    0.112548
     6  C    0.093302
     7  H    0.124222
     8  H    0.159741
     9  H    0.161863
    10  H    0.156817
    11  O   -0.655395
    12  O   -0.650804
    13  O   -0.652732
    14  H    0.408361
    15  H    0.418723
    16  H    0.420915
    17  C   -0.053544
    18  O   -0.632038
    19  H    0.156208
    20  H    0.138020
    21  H    0.418257
    22  H    0.130636
    23  O   -0.638311
    24  H    0.447813
    25  H    0.477361
    26  O   -0.832414
    27  H    0.393918
    28  O   -0.822692
    29  H    0.404130
    30  H    0.447749
 Sum of Mulliken charges =  -0.00000

 Dipole moment (field-independent basis, Debye):
    X=             -2.1544    Y=             -1.2813    Z=             -1.0516  Tot=              2.7183
 Quadrupole moment (field-independent basis, Debye-Ang):
   XX=            -75.3933   YY=            -93.5579   ZZ=            -79.9956
   XY=             -3.8240   XZ=            -15.6007   YZ=              7.7189

  Exact polarizability:   0.000   0.000   0.000   0.000   0.000   0.000
 Approx polarizability: 140.609   8.461 132.221  -0.429   2.827 128.098

 Normal termination of Gaussian 09 at Sun Jan  8 16:22:04 2017.
