 Gaussian 09, Revision E.01,
 Gaussian 09:  ES64L-G09RevE.01 30-Nov-2015

 ---------------------------------------------------------------
 # IRC=(CalcFC,Reverse,MaxCycle=500,MaxPoints=10) B3LYP/6-31G(d)
 ---------------------------------------------------------------

 -------------------------------------
 glo_1w_beta_ts_chair2_B3LYP_631Gd.out
 -------------------------------------
 Symbolic Z-matrix:
 Charge =  0 Multiplicity = 1

 SCF Done:  E(RB3LYP) =  -839.963779356     A.U. after   14 cycles
 SCF Done:  E(RB3LYP) =  -839.964175688     A.U. after   11 cycles
 SCF Done:  E(RB3LYP) =  -839.965456050     A.U. after   11 cycles
 SCF Done:  E(RB3LYP) =  -839.967644009     A.U. after   11 cycles
 SCF Done:  E(RB3LYP) =  -839.970607657     A.U. after   11 cycles
 SCF Done:  E(RB3LYP) =  -839.974075254     A.U. after   11 cycles
 SCF Done:  E(RB3LYP) =  -839.977649278     A.U. after   11 cycles
 SCF Done:  E(RB3LYP) =  -839.980864509     A.U. after   11 cycles
 SCF Done:  E(RB3LYP) =  -839.983422216     A.U. after   11 cycles
 SCF Done:  E(RB3LYP) =  -839.985475625     A.U. after   11 cycles
 SCF Done:  E(RB3LYP) =  -839.987245879     A.U. after   11 cycles

                          Input orientation:
 ---------------------------------------------------------------------
 Center     Atomic      Atomic             Coordinates (Angstroms)
 Number     Number       Type             X           Y           Z
 ---------------------------------------------------------------------
      1          6           0       -1.706330    0.479663   -0.459900
      2          8           0       -1.065365    0.817812    0.877992
      3          6           0       -1.595393   -1.024478   -0.722550
      4          6           0       -0.120791   -1.450892   -0.626456
      5          6           0        0.474998   -1.118463    0.762836
      6          6           0        0.308619    0.354672    1.164467
      7          1           0       -1.961201   -1.229283   -1.738737
      8          1           0        1.547511   -1.326348    0.738615
      9          1           0        0.369613    0.382056    2.256150
     10          1           0       -0.052788   -2.534161   -0.760827
     11          8           0       -2.335361   -1.771031    0.242934
     12          8           0        0.595817   -0.840851   -1.707200
     13          8           0       -0.060626   -1.994131    1.744873
     14          1           0        0.195928    0.040852   -1.867721
     15          1           0       -3.247050   -1.439673    0.267547
     16          1           0       -1.028731   -1.975107    1.641885
     17          6           0        1.390527    1.322599    0.618249
     18          8           0        2.669862    0.917830    1.047548
     19          1           0        1.194062    2.322924    1.020107
     20          1           0        1.332706    1.399854   -0.473933
     21          1           0        3.048653    0.355125    0.334990
     22          8           0       -1.156305    1.217792   -1.481690
     23          1           0       -1.115132    2.161898   -1.111318
     24          1           0       -2.749931    0.765662   -0.252531
     25          1           0       -1.094146    2.318928    0.678921
     26          8           0       -1.076790    3.096148    0.045173
     27          1           0       -1.903722    3.586173    0.169020
     28          8           0        3.320439   -0.614390   -1.167291
     29          1           0        2.406641   -0.763850   -1.499157
     30          1           0        3.770271   -0.115603   -1.865019
 ---------------------------------------------------------------------

 Alpha  occ. eigenvalues --  -19.18901 -19.18184 -19.16971 -19.16681 -19.16649
 Alpha  occ. eigenvalues --  -19.14481 -19.12797 -19.11424 -10.31695 -10.26867
 Alpha  occ. eigenvalues --  -10.25258 -10.23670 -10.23175 -10.21994  -1.09269
 Alpha  occ. eigenvalues --   -1.06064  -1.03847  -1.02260  -1.01707  -1.00435
 Alpha  occ. eigenvalues --   -1.00006  -0.98823  -0.78531  -0.76613  -0.69204
 Alpha  occ. eigenvalues --   -0.66227  -0.63516  -0.58455  -0.56712  -0.55794
 Alpha  occ. eigenvalues --   -0.54113  -0.53365  -0.52775  -0.49959  -0.49175
 Alpha  occ. eigenvalues --   -0.48442  -0.46762  -0.45417  -0.44662  -0.43439
 Alpha  occ. eigenvalues --   -0.41850  -0.41063  -0.39959  -0.39687  -0.38551
 Alpha  occ. eigenvalues --   -0.37992  -0.36552  -0.35294  -0.33120  -0.32253
 Alpha  occ. eigenvalues --   -0.31546  -0.31208  -0.30387  -0.29691  -0.29227
 Alpha  occ. eigenvalues --   -0.28815  -0.25735  -0.23836
 Alpha virt. eigenvalues --    0.03265   0.04843   0.06666   0.07157   0.09291
 Alpha virt. eigenvalues --    0.12050   0.12306   0.12781   0.13381   0.15877
 Alpha virt. eigenvalues --    0.16219   0.17050   0.17619   0.18477   0.19914

 Mulliken charges:
               1
     1  C    0.289770
     2  O   -0.588771
     3  C    0.083886
     4  C    0.095258
     5  C    0.097002
     6  C    0.101258
     7  H    0.159229
     8  H    0.166556
     9  H    0.173918
    10  H    0.170078
    11  O   -0.632255
    12  O   -0.685394
    13  O   -0.651036
    14  H    0.446790
    15  H    0.406456
    16  H    0.418083
    17  C   -0.069315
    18  O   -0.653926
    19  H    0.149574
    20  H    0.105490
    21  H    0.440508
    22  O   -0.654091
    23  H    0.456027
    24  H    0.122737
    25  H    0.450499
    26  O   -0.812849
    27  H    0.399962
    28  O   -0.819046
    29  H    0.438210
    30  H    0.395394
 Sum of Mulliken charges =  -0.00000

 Dipole moment (field-independent basis, Debye):
    X=             -5.7102    Y=              2.2521    Z=             -2.8770  Tot=              6.7791
 Quadrupole moment (field-independent basis, Debye-Ang):
   XX=            -73.5486   YY=            -86.2982   ZZ=            -87.3980
   XY=             -2.6552   XZ=             -9.2870   YZ=              2.4309

  Exact polarizability:   0.000   0.000   0.000   0.000   0.000   0.000
 Approx polarizability: 137.107  -2.349 125.850  -1.584  -4.385 129.510

 Normal termination of Gaussian 09 at Sun Jan  8 16:22:14 2017.
