 Gaussian 09, Revision D.01,
 Gaussian 09:  ES64L-G09RevD.01 24-Apr-2013

 -------------------------
 # b3lyp/6-31g(d) opt freq
 -------------------------

 -------------------
 Title Card Required
 -------------------
 Symbolic Z-matrix:
 Charge =  0 Multiplicity = 1

 SCF Done:  E(RB3LYP) =  -839.957144284     A.U. after   14 cycles
 SCF Done:  E(RB3LYP) =  -839.938772741     A.U. after   15 cycles
 SCF Done:  E(RB3LYP) =  -839.960257706     A.U. after   12 cycles
 SCF Done:  E(RB3LYP) =  -839.957446786     A.U. after   13 cycles
 SCF Done:  E(RB3LYP) =  -839.962066493     A.U. after   11 cycles
 SCF Done:  E(RB3LYP) =  -839.963778040     A.U. after   13 cycles
 SCF Done:  E(RB3LYP) =  -839.965388913     A.U. after   13 cycles
 SCF Done:  E(RB3LYP) =  -839.965905711     A.U. after   12 cycles
 SCF Done:  E(RB3LYP) =  -839.966555228     A.U. after   13 cycles
 SCF Done:  E(RB3LYP) =  -839.967076081     A.U. after   13 cycles
 SCF Done:  E(RB3LYP) =  -839.970736300     A.U. after   10 cycles
 SCF Done:  E(RB3LYP) =  -839.970742413     A.U. after   10 cycles
 SCF Done:  E(RB3LYP) =  -839.970746135     A.U. after    8 cycles
 SCF Done:  E(RB3LYP) =  -839.970748423     A.U. after    8 cycles
 SCF Done:  E(RB3LYP) =  -839.970750341     A.U. after    8 cycles
 SCF Done:  E(RB3LYP) =  -839.970752259     A.U. after    8 cycles
 SCF Done:  E(RB3LYP) =  -839.970753555     A.U. after    8 cycles
 SCF Done:  E(RB3LYP) =  -839.970754108     A.U. after    8 cycles
 SCF Done:  E(RB3LYP) =  -839.970754361     A.U. after    7 cycles
 Optimization completed.
    -- Stationary point found.
 Normal termination of Gaussian 09 at Sun Jan 22 19:38:57 2017.

 --------------------------------------------------------------------
 #N Geom=AllCheck Guess=TCheck SCRF=Check GenChk RB3LYP/6-31G(d) Freq
 --------------------------------------------------------------------

 Structure from the checkpoint file:  "/home/iawad/Gau-31065.chk"
 -------------------
 Title Card Required
 -------------------
 Charge =  0 Multiplicity = 1

                         Standard orientation:
 ---------------------------------------------------------------------
 Center     Atomic      Atomic             Coordinates (Angstroms)
 Number     Number       Type             X           Y           Z
 ---------------------------------------------------------------------
      1          8           0       -0.989207    0.761656   -1.394123
      2          6           0       -0.308721    0.866784    0.981323
      3          6           0        0.401125   -1.378668   -0.233288
      4          6           0        0.375727   -0.528850    1.051078
      5          6           0       -0.970160   -1.771367   -0.761695
      6          6           0       -0.388145    1.561980   -0.392427
      7          1           0       -0.170270   -1.092277    1.822432
      8          1           0       -0.992173    2.475956   -0.233560
      9          1           0        0.283890    1.530005    1.626330
     10          1           0        0.959973   -0.870317   -1.015731
     11          6           0        0.989163    2.028469   -0.895648
     12          1           0        0.860418    2.434758   -1.907541
     13          1           0        1.701787    1.202830   -0.960442
     14          8           0        1.566072    2.980923   -0.003543
     15          1           0        1.123723    3.830663   -0.152722
     16          8           0        1.113558   -2.608715   -0.036390
     17          1           0        0.714604   -3.071112    0.719944
     18          8           0        1.749968   -0.383736    1.426872
     19          1           0        1.793220    0.114794    2.257110
     20          8           0       -1.624027    0.729295    1.566920
     21          1           0       -1.919050    1.617988    1.823313
     22          1           0       -1.012106   -1.940600   -1.854233
     23          8           0       -1.924376   -2.018073   -0.046040
     24          1           0       -3.594360   -0.653211   -0.645240
     25          8           0       -3.526563    0.297319   -0.451779
     26          1           0       -3.054036    0.294317    0.407619
     27          1           0       -1.960339    0.695334   -1.204235
     28          8           0        3.434872   -0.872293   -0.858035
     29          1           0        3.161039   -0.544128    0.016397
     30          1           0        3.107373   -1.786092   -0.826537
 ---------------------------------------------------------------------

 SCF Done:  E(RB3LYP) =  -839.970754361     A.U. after    1 cycles

 The electronic state is 1-A.
 Alpha  occ. eigenvalues --  -19.18570 -19.17583 -19.17331 -19.16210 -19.15761
 Alpha  occ. eigenvalues --  -19.14866 -19.14787 -19.10798 -10.28819 -10.26329
 Alpha  occ. eigenvalues --  -10.26132 -10.25113 -10.25055 -10.23457  -1.06713
 Alpha  occ. eigenvalues --   -1.05649  -1.04880  -1.03114  -1.03022  -1.01962
 Alpha  occ. eigenvalues --   -1.00326  -0.96722  -0.79248  -0.75374  -0.70561
 Alpha  occ. eigenvalues --   -0.65636  -0.61581  -0.57975  -0.55963  -0.53789
 Alpha  occ. eigenvalues --   -0.52874  -0.52783  -0.51904  -0.50103  -0.48561
 Alpha  occ. eigenvalues --   -0.47651  -0.46054  -0.45229  -0.44768  -0.44185
 Alpha  occ. eigenvalues --   -0.42162  -0.41749  -0.40386  -0.39692  -0.37755
 Alpha  occ. eigenvalues --   -0.37301  -0.35824  -0.34376  -0.34254  -0.33761
 Alpha  occ. eigenvalues --   -0.32110  -0.31244  -0.30375  -0.30288  -0.28375
 Alpha  occ. eigenvalues --   -0.26693  -0.26217  -0.25538
 Alpha virt. eigenvalues --   -0.03549   0.03547   0.04587   0.05818   0.07224
 Alpha virt. eigenvalues --    0.09521   0.10388   0.11542   0.11979   0.13320
 Alpha virt. eigenvalues --    0.14486   0.16219   0.16497   0.17305   0.18932

 Mulliken charges:
               1
     1  O   -0.666013
     2  C    0.087201
     3  C    0.060527
     4  C    0.105828
     5  C    0.250922
     6  C    0.093898
     7  H    0.149086
     8  H    0.096682
     9  H    0.137598
    10  H    0.188270
    11  C   -0.081944
    12  H    0.148569
    13  H    0.194157
    14  O   -0.615126
    15  H    0.391546
    16  O   -0.626527
    17  H    0.400975
    18  O   -0.635266
    19  H    0.406086
    20  O   -0.639230
    21  H    0.406487
    22  H    0.136270
    23  O   -0.437622
    24  H    0.415326
    25  O   -0.821032
    26  H    0.426821
    27  H    0.433151
    28  O   -0.822946
    29  H    0.415912
    30  H    0.400394
 Sum of Mulliken charges =   0.00000

 Dipole moment (field-independent basis, Debye):
    X=             -2.0736    Y=              1.9025    Z=              3.5890  Tot=              4.5607
 Quadrupole moment (field-independent basis, Debye-Ang):
   XX=           -105.9307   YY=            -70.3913   ZZ=            -78.4069
   XY=             -2.0086   XZ=              4.6991   YZ=              2.1517

  Exact polarizability: 100.609   1.925 100.260  -1.098   2.102  85.388
 Approx polarizability: 140.542   2.423 133.140  -6.677   2.072 126.954

                      1                      2                      3
                      A                      A                      A
 Frequencies --     35.9709                52.1883                78.9213
 Red. masses --      5.5984                 6.7599                 5.8613
 Frc consts  --      0.0043                 0.0108                 0.0215
 IR Inten    --      1.5262                 3.3431                 5.5372

                      4                      5                      6
                      A                      A                      A
 Frequencies --     95.9781                97.2722               115.0982
 Red. masses --      5.1177                 6.5257                 5.5274
 Frc consts  --      0.0278                 0.0364                 0.0431
 IR Inten    --      7.1010                 1.5840                 5.2672

                      7                      8                      9
                      A                      A                      A
 Frequencies --    134.3485               150.3852               161.0678
 Red. masses --      4.6260                 6.3021                 3.8840
 Frc consts  --      0.0492                 0.0840                 0.0594
 IR Inten    --      5.3989                10.0171                12.7076

                     10                     11                     12
                      A                      A                      A
 Frequencies --    165.7800               182.1036               192.5912
 Red. masses --      3.8156                 3.6820                 4.2729
 Frc consts  --      0.0618                 0.0719                 0.0934
 IR Inten    --      8.7194                 5.8862                20.1934

                     13                     14                     15
                      A                      A                      A
 Frequencies --    210.2609               221.0346               231.4490
 Red. masses --      3.9056                 2.1511                 1.1714
 Frc consts  --      0.1017                 0.0619                 0.0370
 IR Inten    --     24.4970                73.4118                59.3371

                     16                     17                     18
                      A                      A                      A
 Frequencies --    260.2661               279.4033               289.8209
 Red. masses --      2.6878                 2.3679                 2.2840
 Frc consts  --      0.1073                 0.1089                 0.1130
 IR Inten    --     36.0634                97.5558                88.0134

                     19                     20                     21
                      A                      A                      A
 Frequencies --    303.1269               307.3573               317.8187
 Red. masses --      1.4517                 2.0968                 1.7098
 Frc consts  --      0.0786                 0.1167                 0.1018
 IR Inten    --     97.1715                59.5467                63.7747

                     22                     23                     24
                      A                      A                      A
 Frequencies --    343.5854               370.3596               391.4009
 Red. masses --      3.0626                 1.8041                 2.6229
 Frc consts  --      0.2130                 0.1458                 0.2367
 IR Inten    --      8.0986                13.9778                53.1544

                     25                     26                     27
                      A                      A                      A
 Frequencies --    442.1348               447.6122               455.5363
 Red. masses --      2.6594                 1.1245                 1.2498
 Frc consts  --      0.3063                 0.1327                 0.1528
 IR Inten    --     27.4967                59.0163                22.5186

                     28                     29                     30
                      A                      A                      A
 Frequencies --    475.8875               509.9507               553.9458
 Red. masses --      3.8050                 3.9675                 2.2151
 Frc consts  --      0.5077                 0.6079                 0.4005
 IR Inten    --     15.4943                10.4681                77.4674

                     31                     32                     33
                      A                      A                      A
 Frequencies --    568.8370               618.7207               678.1934
 Red. masses --      1.5596                 1.1036                 1.3162
 Frc consts  --      0.2973                 0.2489                 0.3567
 IR Inten    --     51.3744               360.3563               123.1948

                     34                     35                     36
                      A                      A                      A
 Frequencies --    710.5569               750.3106               821.8979
 Red. masses --      2.6346                 3.7401                 3.0546
 Frc consts  --      0.7837                 1.2406                 1.2157
 IR Inten    --    100.2131                21.8498                14.2561

                     37                     38                     39
                      A                      A                      A
 Frequencies --    923.5423               936.5375               976.7022
 Red. masses --      2.6909                 1.1438                 2.2002
 Frc consts  --      1.3523                 0.5911                 1.2366
 IR Inten    --     44.8686               184.2945                58.7130

                     40                     41                     42
                      A                      A                      A
 Frequencies --    989.5959              1030.4315              1051.5496
 Red. masses --      1.8381                 3.3944                 3.5637
 Frc consts  --      1.0605                 2.1235                 2.3217
 IR Inten    --      8.5467                14.4225               101.4004

                     43                     44                     45
                      A                      A                      A
 Frequencies --   1059.2922              1071.0125              1082.9413
 Red. masses --      2.7703                 3.9352                 4.6625
 Frc consts  --      1.8315                 2.6595                 3.2217
 IR Inten    --     52.9971                52.0520                81.0200

                     46                     47                     48
                      A                      A                      A
 Frequencies --   1091.4849              1109.2131              1141.2898
 Red. masses --      2.7899                 2.2055                 2.5956
 Frc consts  --      1.9583                 1.5988                 1.9920
 IR Inten    --      7.7396                23.3084                53.5850

                     49                     50                     51
                      A                      A                      A
 Frequencies --   1200.4311              1218.1031              1264.1595
 Red. masses --      1.3440                 1.1368                 1.1710
 Frc consts  --      1.1411                 0.9938                 1.1026
 IR Inten    --      6.6544                87.6208                27.8581

                     52                     53                     54
                      A                      A                      A
 Frequencies --   1294.1751              1311.3289              1340.8036
 Red. masses --      1.2804                 1.2758                 1.3316
 Frc consts  --      1.2635                 1.2926                 1.4105
 IR Inten    --     22.3588                27.4882                23.0283

                     55                     56                     57
                      A                      A                      A
 Frequencies --   1370.4958              1375.0249              1387.1772
 Red. masses --      1.2752                 1.2243                 1.3815
 Frc consts  --      1.4112                 1.3638                 1.5663
 IR Inten    --     37.4230                 5.8801                10.4671

                     58                     59                     60
                      A                      A                      A
 Frequencies --   1403.0358              1419.6961              1436.8732
 Red. masses --      1.2777                 1.1853                 1.2660
 Frc consts  --      1.4818                 1.4075                 1.5400
 IR Inten    --     41.2995                21.3158                23.4202

                     61                     62                     63
                      A                      A                      A
 Frequencies --   1446.1058              1456.4244              1479.7552
 Red. masses --      1.4196                 1.2892                 1.3815
 Frc consts  --      1.7491                 1.6112                 1.7822
 IR Inten    --      5.3657                 6.3207                 9.9883

                     64                     65                     66
                      A                      A                      A
 Frequencies --   1526.2876              1544.2105              1738.2824
 Red. masses --      1.2424                 1.0842                 1.1603
 Frc consts  --      1.7052                 1.5233                 2.0657
 IR Inten    --     22.7250                 3.3421               115.8526

                     67                     68                     69
                      A                      A                      A
 Frequencies --   1748.3347              1805.6164              2933.7465
 Red. masses --      1.0825                 5.6854                 1.0831
 Frc consts  --      1.9494                10.9210                 5.4923
 IR Inten    --    142.9024               114.9722                83.0568

                     70                     71                     72
                      A                      A                      A
 Frequencies --   2987.9999              3022.0183              3034.6305
 Red. masses --      1.0880                 1.0838                 1.0849
 Frc consts  --      5.7232                 5.8317                 5.8862
 IR Inten    --     77.2374                27.6621                30.3923

                     73                     74                     75
                      A                      A                      A
 Frequencies --   3051.4785              3144.0178              3182.2175
 Red. masses --      1.0693                 1.0981                 1.0867
 Frc consts  --      5.8665                 6.3954                 6.4834
 IR Inten    --     38.3695                 5.5252                 2.3822

                     76                     77                     78
                      A                      A                      A
 Frequencies --   3348.5764              3589.1164              3699.9687
 Red. masses --      1.0693                 1.0573                 1.0479
 Frc consts  --      7.0643                 8.0245                 8.4525
 IR Inten    --    504.3200               299.6097                69.6147

                     79                     80                     81
                      A                      A                      A
 Frequencies --   3719.5415              3737.0542              3744.5529
 Red. masses --      1.0661                 1.0663                 1.0665
 Frc consts  --      8.6904                 8.7735                 8.8106
 IR Inten    --     19.8775                27.4898                16.7755

                     82                     83                     84
                      A                      A                      A
 Frequencies --   3754.9405              3760.5665              3789.0572
 Red. masses --      1.0664                 1.0691                 1.0775
 Frc consts  --      8.8588                 8.9076                 9.1141
 IR Inten    --     24.4706                66.3057                63.1122

 - Thermochemistry -
 -------------------
 Temperature   298.150 Kelvin.  Pressure   1.00000 Atm.
 Atom     1 has atomic number  8 and mass  15.99491

 Molecular mass:   216.08452 amu.
 Principal axes and moments of inertia in atomic units:
                           1         2         3
     Eigenvalues --  2653.922353188.667074493.72974
           X            0.99955  -0.02999  -0.00035
           Y            0.02999   0.99955   0.00051
           Z            0.00034  -0.00052   1.00000
 This molecule is an asymmetric top.
 Rotational symmetry number  1.
 Warning -- assumption of classical behavior for rotation
           may cause significant error
 Rotational temperatures (Kelvin)      0.03264     0.02716     0.01927
 Rotational constants (GHZ):           0.68003     0.56599     0.40161
 Zero-point vibrational energy     644491.5 (Joules/Mol)
                                  154.03717 (Kcal/Mol)
 Warning -- explicit consideration of  32 degrees of freedom as
           vibrations may cause significant error
 Vibrational temperatures:     51.75    75.09   113.55   138.09   139.95
          (Kelvin)            165.60   193.30   216.37   231.74   238.52
                              262.01   277.10   302.52   318.02   333.00
                              374.46   402.00   416.99   436.13   442.22
                              457.27   494.34   532.86   563.14   636.13
                              644.01   655.41   684.70   733.70   797.00
                              818.43   890.20   975.77  1022.33  1079.53
                             1182.53  1328.77  1347.47  1405.25  1423.81
                             1482.56  1512.94  1524.08  1540.95  1558.11
                             1570.40  1595.91  1642.06  1727.15  1752.58
                             1818.84  1862.03  1886.71  1929.11  1971.84
                             1978.35  1995.84  2018.65  2042.62  2067.34
                             2080.62  2095.47  2129.04  2195.98  2221.77
                             2501.00  2515.46  2597.88  4221.00  4299.06
                             4348.00  4366.15  4390.39  4523.53  4578.50
                             4817.85  5163.93  5323.42  5351.58  5376.78
                             5387.57  5402.52  5410.61  5451.60

 Zero-point correction=                           0.245474 (Hartree/Particle)
 Thermal correction to Energy=                    0.264583
 Thermal correction to Enthalpy=                  0.265527
 Thermal correction to Gibbs Free Energy=         0.199485
 Sum of electronic and zero-point Energies=           -839.725280
 Sum of electronic and thermal Energies=              -839.706171
 Sum of electronic and thermal Enthalpies=            -839.705227
 Sum of electronic and thermal Free Energies=         -839.771269

                     E (Thermal)             CV                S
                      KCal/Mol        Cal/Mol-Kelvin    Cal/Mol-Kelvin
 Total                  166.028             68.278            138.997
 Electronic               0.000              0.000              0.000
 Translational            0.889              2.981             42.015
 Rotational               0.889              2.981             32.009
 Vibrational            164.251             62.316             64.974
 Vibration     1          0.594              1.982              5.469
 Vibration     2          0.596              1.977              4.733
 Vibration     3          0.600              1.963              3.918
 Vibration     4          0.603              1.952              3.534
 Vibration     5          0.603              1.951              3.508
 Vibration     6          0.608              1.937              3.181
 Vibration     7          0.613              1.919              2.883
 Vibration     8          0.618              1.902              2.667
 Vibration     9          0.622              1.890              2.537
 Vibration    10          0.624              1.885              2.483
 Vibration    11          0.630              1.864              2.307
 Vibration    12          0.635              1.850              2.203
 Vibration    13          0.642              1.825              2.041
 Vibration    14          0.648              1.809              1.951
 Vibration    15          0.653              1.793              1.868
 Vibration    16          0.668              1.745              1.660
 Vibration    17          0.680              1.712              1.537
 Vibration    18          0.686              1.693              1.475
 Vibration    19          0.695              1.668              1.400
 Vibration    20          0.697              1.660              1.377
 Vibration    21          0.704              1.640              1.321
 Vibration    22          0.722              1.588              1.195
 Vibration    23          0.742              1.533              1.078
 Vibration    24          0.759              1.489              0.995
 Vibration    25          0.802              1.378              0.820
 Vibration    26          0.807              1.366              0.803
 Vibration    27          0.814              1.349              0.779
 Vibration    28          0.833              1.304              0.721
 Vibration    29          0.865              1.228              0.634
 Vibration    30          0.909              1.131              0.536
 Vibration    31          0.925              1.099              0.506
 Vibration    32          0.979              0.992              0.419

 Normal termination of Gaussian 09 at Sun Jan 22 19:42:48 2017.
