 Gaussian 09, Revision D.01,
 Gaussian 09:  ES64L-G09RevD.01 24-Apr-2013

 -------------------------
 # b3lyp/6-31g(d) opt freq
 -------------------------

 -------------------
 Title Card Required
 -------------------
 Symbolic Z-matrix:
 Charge =  0 Multiplicity = 1

 SCF Done:  E(RB3LYP) =  -839.973318130     A.U. after   14 cycles
 SCF Done:  E(RB3LYP) =  -839.967333457     A.U. after   14 cycles
 SCF Done:  E(RB3LYP) =  -839.975728097     A.U. after   11 cycles
 SCF Done:  E(RB3LYP) =  -839.975531283     A.U. after   12 cycles
 SCF Done:  E(RB3LYP) =  -839.977531879     A.U. after   10 cycles
 SCF Done:  E(RB3LYP) =  -839.978709332     A.U. after   12 cycles
 SCF Done:  E(RB3LYP) =  -839.979890500     A.U. after   12 cycles
 SCF Done:  E(RB3LYP) =  -839.980588443     A.U. after   12 cycles
 SCF Done:  E(RB3LYP) =  -839.981745502     A.U. after   11 cycles
 SCF Done:  E(RB3LYP) =  -839.982133681     A.U. after   11 cycles
 SCF Done:  E(RB3LYP) =  -839.983090898     A.U. after    8 cycles
 SCF Done:  E(RB3LYP) =  -839.983098508     A.U. after   10 cycles
 SCF Done:  E(RB3LYP) =  -839.983101428     A.U. after    9 cycles
 SCF Done:  E(RB3LYP) =  -839.983102650     A.U. after    9 cycles
 SCF Done:  E(RB3LYP) =  -839.983103735     A.U. after    9 cycles
 SCF Done:  E(RB3LYP) =  -839.983103798     A.U. after    7 cycles
 SCF Done:  E(RB3LYP) =  -839.983105260     A.U. after    7 cycles
 SCF Done:  E(RB3LYP) =  -839.983105619     A.U. after    7 cycles
 SCF Done:  E(RB3LYP) =  -839.983106059     A.U. after    7 cycles
 Optimization completed.
    -- Stationary point found.
 Normal termination of Gaussian 09 at Sun Jan 22 19:36:15 2017.

 --------------------------------------------------------------------
 #N Geom=AllCheck Guess=TCheck SCRF=Check GenChk RB3LYP/6-31G(d) Freq
 --------------------------------------------------------------------

 Structure from the checkpoint file:  "/home/iawad/Gau-30167.chk"
 -------------------
 Title Card Required
 -------------------
 Charge =  0 Multiplicity = 1

                         Standard orientation:
 ---------------------------------------------------------------------
 Center     Atomic      Atomic             Coordinates (Angstroms)
 Number     Number       Type             X           Y           Z
 ---------------------------------------------------------------------
      1          8           0       -1.232455   -0.373561   -1.270008
      2          6           0       -0.725166    0.637426    0.953818
      3          6           0        1.132038   -0.360866   -0.469327
      4          6           0        0.571225   -0.198495    0.945680
      5          6           0        0.058645   -0.968221   -1.403736
      6          6           0       -1.394141    0.768773   -0.430188
      7          1           0        0.322462   -1.199922    1.321164
      8          1           0       -2.479930    0.823257   -0.266261
      9          1           0       -0.485101    1.646643    1.306152
     10          1           0        1.482493    0.608449   -0.834074
     11          6           0       -1.000936    2.074518   -1.151698
     12          1           0       -1.390313    2.033157   -2.177751
     13          1           0        0.084344    2.193152   -1.211165
     14          8           0       -1.478450    3.209208   -0.437281
     15          1           0       -2.420525    3.315942   -0.639966
     16          8           0        2.263712   -1.210693   -0.493973
     17          1           0        1.903914   -2.115506   -0.576075
     18          8           0        1.572823    0.389024    1.771885
     19          1           0        1.327605    0.238616    2.697618
     20          8           0       -1.596199   -0.002144    1.916003
     21          1           0       -2.325667    0.604873    2.119589
     22          1           0        0.387233   -0.862486   -2.443683
     23          8           0       -0.046983   -2.348931   -1.173269
     24          1           0       -0.660663   -2.491673   -0.408012
     25          8           0       -2.028702   -2.571215    0.759588
     26          1           0       -1.999225   -1.740418    1.280918
     27          1           0       -2.676532   -2.386030    0.061455
     28          8           0        3.799241    1.186623    0.001361
     29          1           0        3.265119    1.122847    0.811159
     30          1           0        3.790905    0.263805   -0.302806
 ---------------------------------------------------------------------

 SCF Done:  E(RB3LYP) =  -839.983106059     A.U. after    1 cycles

 The electronic state is 1-A.
 Alpha  occ. eigenvalues --  -19.19463 -19.17481 -19.17141 -19.16942 -19.16095
 Alpha  occ. eigenvalues --  -19.14994 -19.14829 -19.09450 -10.29418 -10.26485
 Alpha  occ. eigenvalues --  -10.26354 -10.25548 -10.25153 -10.24311  -1.08198
 Alpha  occ. eigenvalues --   -1.06063  -1.04443  -1.04151  -1.02526  -1.01850
 Alpha  occ. eigenvalues --   -1.00002  -0.95441  -0.80200  -0.77220  -0.70814
 Alpha  occ. eigenvalues --   -0.66353  -0.64643  -0.58820  -0.57233  -0.55167
 Alpha  occ. eigenvalues --   -0.53849  -0.53166  -0.52193  -0.50198  -0.49055
 Alpha  occ. eigenvalues --   -0.48489  -0.46873  -0.46048  -0.45608  -0.44131
 Alpha  occ. eigenvalues --   -0.42730  -0.41025  -0.40544  -0.38982  -0.37873
 Alpha  occ. eigenvalues --   -0.37231  -0.36057  -0.35538  -0.33926  -0.32640
 Alpha  occ. eigenvalues --   -0.32102  -0.31654  -0.31060  -0.29683  -0.28985
 Alpha  occ. eigenvalues --   -0.27322  -0.26088  -0.25201
 Alpha virt. eigenvalues --    0.03204   0.04471   0.05720   0.06074   0.08720
 Alpha virt. eigenvalues --    0.09053   0.10955   0.11112   0.12417   0.13641
 Alpha virt. eigenvalues --    0.15026   0.15716   0.16644   0.17360   0.18078

 Mulliken charges:
               1
     1  O   -0.521256
     2  C    0.073071
     3  C    0.055812
     4  C    0.120455
     5  C    0.323405
     6  C    0.112427
     7  H    0.142413
     8  H    0.114203
     9  H    0.178004
    10  H    0.166862
    11  C   -0.090389
    12  H    0.151148
    13  H    0.180884
    14  O   -0.609244
    15  H    0.395120
    16  O   -0.648531
    17  H    0.410944
    18  O   -0.637146
    19  H    0.406627
    20  O   -0.651837
    21  H    0.406068
    22  H    0.150240
    23  O   -0.667637
    24  H    0.437983
    25  O   -0.808624
    26  H    0.430084
    27  H    0.400676
    28  O   -0.833916
    29  H    0.405015
    30  H    0.407137
 Sum of Mulliken charges =   0.00000

 Dipole moment (field-independent basis, Debye):
    X=             -6.8202    Y=              1.1059    Z=              1.7829  Tot=              7.1356
 Quadrupole moment (field-independent basis, Debye-Ang):
   XX=            -87.8441   YY=            -94.8224   ZZ=            -76.8552
   XY=            -15.5829   XZ=              1.5715   YZ=             -0.2572

  Exact polarizability:  97.824  -3.896  94.221  -3.125   2.596  87.018
 Approx polarizability: 132.032  -1.959 130.652  -4.645   5.306 121.195

                      1                      2                      3
                      A                      A                      A
 Frequencies --     39.8741                51.6239                56.3368
 Red. masses --      6.5216                 6.2860                 5.8136
 Frc consts  --      0.0061                 0.0099                 0.0109
 IR Inten    --      9.1444                 3.2537                 3.9048

                      4                      5                      6
                      A                      A                      A
 Frequencies --     88.3782                95.5706               110.4652
 Red. masses --      5.8101                 5.9353                 3.7050
 Frc consts  --      0.0267                 0.0319                 0.0266
 IR Inten    --      0.9238                 5.9670                 5.7463

                      7                      8                      9
                      A                      A                      A
 Frequencies --    131.0682               160.7425               175.8284
 Red. masses --      6.1921                 6.9816                 3.6543
 Frc consts  --      0.0627                 0.1063                 0.0666
 IR Inten    --      2.3248                 0.9158                 5.1680

                     10                     11                     12
                      A                      A                      A
 Frequencies --    210.5404               221.9325               241.4254
 Red. masses --      3.6504                 4.8726                 1.2545
 Frc consts  --      0.0953                 0.1414                 0.0431
 IR Inten    --     20.1911                 2.7654               106.7851

                     13                     14                     15
                      A                      A                      A
 Frequencies --    261.6572               268.4321               282.4643
 Red. masses --      3.2020                 1.0814                 2.1800
 Frc consts  --      0.1292                 0.0459                 0.1025
 IR Inten    --     17.4460                26.8919                96.9388

                     16                     17                     18
                      A                      A                      A
 Frequencies --    291.3717               297.1956               303.3450
 Red. masses --      2.7686                 2.4802                 1.2242
 Frc consts  --      0.1385                 0.1291                 0.0664
 IR Inten    --     28.3556                70.7726               102.9145

                     19                     20                     21
                      A                      A                      A
 Frequencies --    325.1076               343.0252               386.7222
 Red. masses --      4.3081                 3.8867                 1.2197
 Frc consts  --      0.2683                 0.2695                 0.1075
 IR Inten    --      9.1432                 1.6831                68.1702

                     22                     23                     24
                      A                      A                      A
 Frequencies --    409.1373               420.8231               448.0836
 Red. masses --      2.8033                 1.2842                 1.2334
 Frc consts  --      0.2765                 0.1340                 0.1459
 IR Inten    --     36.8108               127.1892                 0.6265

                     25                     26                     27
                      A                      A                      A
 Frequencies --    455.8679               469.7904               507.8950
 Red. masses --      3.6679                 4.7302                 3.6927
 Frc consts  --      0.4491                 0.6151                 0.5612
 IR Inten    --     22.0657                22.0099                 6.9771

                     28                     29                     30
                      A                      A                      A
 Frequencies --    531.2968               548.5334               574.3802
 Red. masses --      1.2186                 2.8613                 5.6703
 Frc consts  --      0.2027                 0.5073                 1.1022
 IR Inten    --     53.0554                52.8247                 3.8568

                     31                     32                     33
                      A                      A                      A
 Frequencies --    594.7105               705.0327               749.4619
 Red. masses --      1.1281                 3.8477                 1.0982
 Frc consts  --      0.2351                 1.1268                 0.3634
 IR Inten    --    367.6684                 2.9159               167.0829

                     34                     35                     36
                      A                      A                      A
 Frequencies --    778.5131               853.1919               894.2571
 Red. masses --      4.1017                 2.9408                 2.6293
 Frc consts  --      1.4647                 1.2613                 1.2388
 IR Inten    --     21.8406                27.3827                 6.4993

                     37                     38                     39
                      A                      A                      A
 Frequencies --    916.5250               959.0756               999.4519
 Red. masses --      1.1185                 2.4660                 3.4070
 Frc consts  --      0.5536                 1.3364                 2.0051
 IR Inten    --    120.3397                36.6795               110.6127

                     40                     41                     42
                      A                      A                      A
 Frequencies --   1028.8201              1055.3985              1075.0152
 Red. masses --      4.1042                 2.6611                 3.2896
 Frc consts  --      2.5595                 1.7464                 2.2399
 IR Inten    --     11.7769                42.8122               174.7066

                     43                     44                     45
                      A                      A                      A
 Frequencies --   1088.9310              1091.4356              1105.3418
 Red. masses --      3.0648                 2.7381                 3.6184
 Frc consts  --      2.1412                 1.9217                 2.6047
 IR Inten    --     24.4606                34.5180                29.2177

                     46                     47                     48
                      A                      A                      A
 Frequencies --   1133.7267              1149.0677              1162.0517
 Red. masses --      4.1651                 4.0849                 3.8113
 Frc consts  --      3.1542                 3.1777                 3.0323
 IR Inten    --    133.6976               121.0721               135.7155

                     49                     50                     51
                      A                      A                      A
 Frequencies --   1193.0600              1228.1022              1246.7499
 Red. masses --      1.3163                 1.2185                 1.1390
 Frc consts  --      1.1039                 1.0828                 1.0431
 IR Inten    --     12.0994                35.9900                62.3894

                     52                     53                     54
                      A                      A                      A
 Frequencies --   1271.4605              1331.7717              1340.8185
 Red. masses --      1.3710                 1.3583                 1.2449
 Frc consts  --      1.3058                 1.4194                 1.3186
 IR Inten    --     34.0641                27.5088                25.3985

                     55                     56                     57
                      A                      A                      A
 Frequencies --   1354.7864              1359.1593              1377.0481
 Red. masses --      1.3329                 1.2867                 1.3273
 Frc consts  --      1.4415                 1.4005                 1.4829
 IR Inten    --     25.1969                22.2284                 9.2889

                     58                     59                     60
                      A                      A                      A
 Frequencies --   1389.7288              1401.6681              1413.0281
 Red. masses --      1.2978                 1.3088                 1.2483
 Frc consts  --      1.4767                 1.5150                 1.4685
 IR Inten    --      0.5416                21.5230                31.1773

                     61                     62                     63
                      A                      A                      A
 Frequencies --   1425.9548              1446.1990              1467.2939
 Red. masses --      1.2925                 1.4060                 1.3581
 Frc consts  --      1.5484                 1.7326                 1.7227
 IR Inten    --      4.7115                 3.6915                 4.8322

                     64                     65                     66
                      A                      A                      A
 Frequencies --   1475.5647              1487.8154              1535.7410
 Red. masses --      1.2515                 1.1650                 1.0863
 Frc consts  --      1.6055                 1.5194                 1.5095
 IR Inten    --     18.3019               104.7982                 2.8754

                     67                     68                     69
                      A                      A                      A
 Frequencies --   1733.6237              1752.1516              3023.2940
 Red. masses --      1.0760                 1.0810                 1.0856
 Frc consts  --      1.9053                 1.9554                 5.8465
 IR Inten    --     67.4371               179.3116                46.3329

                     70                     71                     72
                      A                      A                      A
 Frequencies --   3043.2854              3048.1195              3075.5416
 Red. masses --      1.0841                 1.0673                 1.0878
 Frc consts  --      5.9159                 5.8426                 6.0625
 IR Inten    --     18.6522                29.8097                62.7920

                     73                     74                     75
                      A                      A                      A
 Frequencies --   3082.0625              3111.1375              3134.5052
 Red. masses --      1.0858                 1.0884                 1.0963
 Frc consts  --      6.0771                 6.2070                 6.3461
 IR Inten    --     10.2800                24.8589                15.5336

                     76                     77                     78
                      A                      A                      A
 Frequencies --   3374.4135              3572.6646              3636.6474
 Red. masses --      1.0676                 1.0568                 1.0646
 Frc consts  --      7.1620                 7.9475                 8.2951
 IR Inten    --    482.2859               295.2671                75.4520

                     79                     80                     81
                      A                      A                      A
 Frequencies --   3707.5876              3740.8733              3746.9068
 Red. masses --      1.0468                 1.0663                 1.0666
 Frc consts  --      8.4778                 8.7918                 8.8226
 IR Inten    --     55.1826                22.4135                20.9186

                     82                     83                     84
                      A                      A                      A
 Frequencies --   3754.8968              3788.3511              3789.3728
 Red. masses --      1.0666                 1.0710                 1.0785
 Frc consts  --      8.8599                 9.0560                 9.1244
 IR Inten    --     29.5744                50.5069                67.5543

 - Thermochemistry -
 -------------------
 Temperature   298.150 Kelvin.  Pressure   1.00000 Atm.
 Atom     1 has atomic number  8 and mass  15.99491

 Molecular mass:   216.08452 amu.
 Principal axes and moments of inertia in atomic units:
                           1         2         3
     Eigenvalues --  2872.278303265.801654205.05398
           X            0.99979  -0.02052  -0.00166
           Y            0.02048   0.99964  -0.01745
           Z            0.00202   0.01742   0.99985
 This molecule is an asymmetric top.
 Rotational symmetry number  1.
 Warning -- assumption of classical behavior for rotation
           may cause significant error
 Rotational temperatures (Kelvin)      0.03016     0.02652     0.02060
 Rotational constants (GHZ):           0.62833     0.55262     0.42918
 Zero-point vibrational energy     651428.3 (Joules/Mol)
                                  155.69510 (Kcal/Mol)
 Warning -- explicit consideration of  31 degrees of freedom as
           vibrations may cause significant error
 Vibrational temperatures:     57.37    74.28    81.06   127.16   137.50
          (Kelvin)            158.93   188.58   231.27   252.98   302.92
                              319.31   347.36   376.47   386.21   406.40
                              419.22   427.60   436.45   467.76   493.54
                              556.41   588.66   605.47   644.69   655.89
                              675.92   730.75   764.42   789.22   826.40
                              855.65  1014.38  1078.31  1120.11  1227.55
                             1286.63  1318.67  1379.89  1437.99  1480.24
                             1518.48  1546.71  1566.73  1570.33  1590.34
                             1631.18  1653.25  1671.93  1716.55  1766.96
                             1793.79  1829.35  1916.12  1929.14  1949.23
                             1955.52  1981.26  1999.51  2016.69  2033.03
                             2051.63  2080.76  2111.11  2123.01  2140.63
                             2209.59  2494.29  2520.95  4349.84  4378.60
                             4385.56  4425.01  4434.40  4476.23  4509.85
                             4855.02  5140.26  5232.32  5334.38  5382.28
                             5390.96  5402.45  5450.59  5452.06

 Zero-point correction=                           0.248116 (Hartree/Particle)
 Thermal correction to Energy=                    0.266112
 Thermal correction to Enthalpy=                  0.267056
 Thermal correction to Gibbs Free Energy=         0.203104
 Sum of electronic and zero-point Energies=           -839.734990
 Sum of electronic and thermal Energies=              -839.716994
 Sum of electronic and thermal Enthalpies=            -839.716050
 Sum of electronic and thermal Free Energies=         -839.780002

                     E (Thermal)             CV                S
                      KCal/Mol        Cal/Mol-Kelvin    Cal/Mol-Kelvin
 Total                  166.988             65.739            134.599
 Electronic               0.000              0.000              0.000
 Translational            0.889              2.981             42.015
 Rotational               0.889              2.981             32.045
 Vibrational            165.210             59.777             60.539
 Vibration     1          0.594              1.981              5.265
 Vibration     2          0.596              1.977              4.754
 Vibration     3          0.596              1.975              4.582
 Vibration     4          0.601              1.957              3.696
 Vibration     5          0.603              1.952              3.543
 Vibration     6          0.606              1.941              3.261
 Vibration     7          0.612              1.922              2.930
 Vibration     8          0.622              1.890              2.541
 Vibration     9          0.628              1.872              2.372
 Vibration    10          0.643              1.825              2.039
 Vibration    11          0.648              1.808              1.943
 Vibration    12          0.658              1.777              1.792
 Vibration    13          0.669              1.743              1.651
 Vibration    14          0.673              1.731              1.606
 Vibration    15          0.682              1.706              1.519
 Vibration    16          0.687              1.690              1.466
 Vibration    17          0.691              1.679              1.433
 Vibration    18          0.695              1.667              1.398
 Vibration    19          0.709              1.625              1.284
 Vibration    20          0.722              1.589              1.198
 Vibration    21          0.755              1.499              1.013
 Vibration    22          0.774              1.450              0.930
 Vibration    23          0.783              1.425              0.889
 Vibration    24          0.807              1.365              0.802
 Vibration    25          0.814              1.348              0.778
 Vibration    26          0.827              1.317              0.738
 Vibration    27          0.863              1.233              0.639
 Vibration    28          0.886              1.181              0.584
 Vibration    29          0.904              1.143              0.547
 Vibration    30          0.931              1.087              0.496
 Vibration    31          0.952              1.043              0.459

 Normal termination of Gaussian 09 at Sun Jan 22 19:40:17 2017.
