 Gaussian 09, Revision E.01,
 Gaussian 09:  ES64L-G09RevE.01 30-Nov-2015

 -------------------------
 # b3lyp/6-31g(d) opt freq
 -------------------------

 ----------------------------------
 glo_2w_beta_ircf_boat5_B3LYP_631Gd
 ----------------------------------
 Symbolic Z-matrix:
 Charge =  0 Multiplicity = 1

 SCF Done:  E(RB3LYP) =  -839.983215100     A.U. after   14 cycles
 SCF Done:  E(RB3LYP) =  -839.988427596     A.U. after   11 cycles
 SCF Done:  E(RB3LYP) =  -839.991925041     A.U. after   12 cycles
 SCF Done:  E(RB3LYP) =  -839.993937075     A.U. after   12 cycles
 SCF Done:  E(RB3LYP) =  -839.994581597     A.U. after   11 cycles
 SCF Done:  E(RB3LYP) =  -839.994805408     A.U. after   12 cycles
 SCF Done:  E(RB3LYP) =  -839.995044381     A.U. after   11 cycles
 SCF Done:  E(RB3LYP) =  -839.995151158     A.U. after   11 cycles
 SCF Done:  E(RB3LYP) =  -839.995199946     A.U. after   10 cycles
 SCF Done:  E(RB3LYP) =  -839.995245806     A.U. after   10 cycles
 SCF Done:  E(RB3LYP) =  -839.995321488     A.U. after    8 cycles
 SCF Done:  E(RB3LYP) =  -839.995325438     A.U. after    8 cycles
 SCF Done:  E(RB3LYP) =  -839.995328243     A.U. after    9 cycles
 SCF Done:  E(RB3LYP) =  -839.995331544     A.U. after    9 cycles
 SCF Done:  E(RB3LYP) =  -839.995334653     A.U. after    9 cycles
 SCF Done:  E(RB3LYP) =  -839.995336103     A.U. after    8 cycles
 SCF Done:  E(RB3LYP) =  -839.995336782     A.U. after    7 cycles
 SCF Done:  E(RB3LYP) =  -839.995337218     A.U. after    7 cycles
 SCF Done:  E(RB3LYP) =  -839.995337409     A.U. after    7 cycles
 Optimization completed.
    -- Stationary point found.
 Normal termination of Gaussian 09 at Sun Jan 15 21:40:04 2017.

 --------------------------------------------------------------------
 #N Geom=AllCheck Guess=TCheck SCRF=Check GenChk RB3LYP/6-31G(d) Freq
 --------------------------------------------------------------------

 Structure from the checkpoint file:  "/scratch/10464852.yak.local/Gau-31901.chk"
 ----------------------------------
 glo_2w_beta_ircf_boat5_B3LYP_631Gd
 ----------------------------------
 Charge =  0 Multiplicity = 1

                         Standard orientation:
 ---------------------------------------------------------------------
 Center     Atomic      Atomic             Coordinates (Angstroms)
 Number     Number       Type             X           Y           Z
 ---------------------------------------------------------------------
      1          8           0        0.455574    0.611605   -0.510731
      2          6           0       -1.524942   -0.103345    0.699305
      3          6           0       -0.037421   -1.818584   -0.394790
      4          6           0       -0.670552   -1.378320    0.925879
      5          6           0        0.843711   -0.692395   -1.002365
      6          6           0       -0.963940    0.756376   -0.457129
      7          1           0       -1.349337   -2.172416    1.267620
      8          1           0       -1.402453    0.394473   -1.398454
      9          1           0       -1.510423    0.481102    1.628220
     10          1           0        0.605298   -2.692186   -0.237020
     11          6           0       -1.333727    2.230957   -0.313646
     12          1           0       -0.858980    2.809913   -1.112299
     13          1           0       -0.951442    2.614043    0.648914
     14          1           0        0.686289   -0.663614   -2.099315
     15          8           0        2.150465   -0.949365   -0.664909
     16          8           0       -2.735162    2.409844   -0.431878
     17          1           0       -3.170180    1.652994    0.000771
     18          8           0       -1.157867   -2.140328   -1.228575
     19          1           0       -0.827033   -2.427980   -2.093362
     20          8           0        0.386542   -1.181845    1.860853
     21          1           0       -0.012494   -0.970133    2.719174
     22          8           0       -2.901422   -0.407486    0.470511
     23          1           0       -2.920953   -0.985192   -0.314083
     24          8           0        3.846000    1.138967   -0.708555
     25          1           0        3.472413    1.273550    0.201209
     26          1           0        4.738631    0.791818   -0.559078
     27          1           0        2.743104   -0.190915   -0.918948
     28          8           0        2.337246    1.107473    1.570517
     29          1           0        1.576370    1.261422    0.976706
     30          1           0        2.251402    0.144082    1.688557
 ---------------------------------------------------------------------

 SCF Done:  E(RB3LYP) =  -839.995337409     A.U. after    1 cycles

 The electronic state is 1-A.
 Alpha  occ. eigenvalues --  -19.18160 -19.17359 -19.17214 -19.16874 -19.14493
 Alpha  occ. eigenvalues --  -19.14211 -19.13873 -19.13576 -10.29812 -10.25773
 Alpha  occ. eigenvalues --  -10.25637 -10.25337 -10.24737 -10.23236  -1.08097
 Alpha  occ. eigenvalues --   -1.05202  -1.04362  -1.03865  -1.01416  -1.00781
 Alpha  occ. eigenvalues --   -1.00258  -0.98938  -0.78839  -0.76932  -0.69519
 Alpha  occ. eigenvalues --   -0.66454  -0.62903  -0.58586  -0.57430  -0.53910
 Alpha  occ. eigenvalues --   -0.53656  -0.52244  -0.52031  -0.50782  -0.50022
 Alpha  occ. eigenvalues --   -0.48830  -0.46866  -0.45309  -0.44066  -0.42209
 Alpha  occ. eigenvalues --   -0.42043  -0.40249  -0.39575  -0.39549  -0.38616
 Alpha  occ. eigenvalues --   -0.37705  -0.36819  -0.36250  -0.33844  -0.33449
 Alpha  occ. eigenvalues --   -0.31413  -0.30836  -0.29986  -0.29332  -0.29031
 Alpha  occ. eigenvalues --   -0.27975  -0.26635  -0.25392
 Alpha virt. eigenvalues --    0.02950   0.05936   0.07347   0.07863   0.08846
 Alpha virt. eigenvalues --    0.10342   0.11201   0.12343   0.13358   0.13602
 Alpha virt. eigenvalues --    0.14045   0.15954   0.16370   0.18312   0.18397

 Mulliken charges:
               1
     1  O   -0.539914
     2  C    0.075309
     3  C    0.060742
     4  C    0.108802
     5  C    0.375908
     6  C    0.102563
     7  H    0.150465
     8  H    0.138133
     9  H    0.141070
    10  H    0.167245
    11  C   -0.029713
    12  H    0.155841
    13  H    0.124203
    14  H    0.106067
    15  O   -0.668316
    16  O   -0.640491
    17  H    0.412316
    18  O   -0.651574
    19  H    0.407772
    20  O   -0.630703
    21  H    0.404608
    22  O   -0.640595
    23  H    0.416823
    24  O   -0.811765
    25  H    0.424214
    26  H    0.393762
    27  H    0.432432
    28  O   -0.822896
    29  H    0.421372
    30  H    0.416321
 Sum of Mulliken charges =  -0.00000

 Dipole moment (field-independent basis, Debye):
    X=              0.3104    Y=             -3.8185    Z=             -0.1480  Tot=              3.8339
 Quadrupole moment (field-independent basis, Debye-Ang):
   XX=            -87.5685   YY=            -89.7796   ZZ=            -76.0374
   XY=              3.2771   XZ=             -1.0195   YZ=              4.1701

  Exact polarizability: 105.043  -0.208  90.955   0.443   2.309  87.038
 Approx polarizability: 140.656   0.650 120.972   3.815   4.400 124.808

                      1                      2                      3
                      A                      A                      A
 Frequencies --     47.3657                64.7050                68.6169
 Red. masses --      5.0187                 5.9393                 6.9384
 Frc consts  --      0.0066                 0.0147                 0.0192
 IR Inten    --      3.9560                 1.2949                 0.8857

                      4                      5                      6
                      A                      A                      A
 Frequencies --     86.9182               118.1903               133.4717
 Red. masses --      6.0308                 4.6965                 5.4700
 Frc consts  --      0.0268                 0.0387                 0.0574
 IR Inten    --      0.3568                 7.3436                 7.9395

                      7                      8                      9
                      A                      A                      A
 Frequencies --    159.5513               176.2027               196.1685
 Red. masses --      4.9826                 5.4544                 5.2075
 Frc consts  --      0.0747                 0.0998                 0.1181
 IR Inten    --      6.4478                 0.5283                14.5067

                     10                     11                     12
                      A                      A                      A
 Frequencies --    215.7882               230.6264               240.6653
 Red. masses --      2.8368                 1.6248                 2.3878
 Frc consts  --      0.0778                 0.0509                 0.0815
 IR Inten    --     11.8695                26.0302                17.7470

                     13                     14                     15
                      A                      A                      A
 Frequencies --    255.7987               264.1577               281.2904
 Red. masses --      3.5921                 3.5949                 1.4637
 Frc consts  --      0.1385                 0.1478                 0.0682
 IR Inten    --      6.2890                15.7437                34.5224

                     16                     17                     18
                      A                      A                      A
 Frequencies --    293.7400               324.0066               355.4355
 Red. masses --      1.1773                 1.7762                 5.0549
 Frc consts  --      0.0599                 0.1099                 0.3763
 IR Inten    --    201.6914                61.0279                 6.6946

                     19                     20                     21
                      A                      A                      A
 Frequencies --    360.8698               367.7968               389.9193
 Red. masses --      1.7483                 2.5323                 1.4907
 Frc consts  --      0.1341                 0.2018                 0.1335
 IR Inten    --     48.1183                25.9423                32.7035

                     22                     23                     24
                      A                      A                      A
 Frequencies --    406.4800               433.0170               458.2782
 Red. masses --      2.7978                 1.2235                 4.4558
 Frc consts  --      0.2724                 0.1352                 0.5514
 IR Inten    --     12.4403               167.3238                 1.7882

                     25                     26                     27
                      A                      A                      A
 Frequencies --    469.5025               504.4710               532.3451
 Red. masses --      3.8751                 4.5816                 3.9299
 Frc consts  --      0.5033                 0.6870                 0.6562
 IR Inten    --     22.0084                19.6135                16.3998

                     28                     29                     30
                      A                      A                      A
 Frequencies --    565.9407               574.2206               580.2625
 Red. masses --      1.3992                 2.2658                 1.3903
 Frc consts  --      0.2640                 0.4402                 0.2758
 IR Inten    --     95.1220                90.1863                89.6895

                     31                     32                     33
                      A                      A                      A
 Frequencies --    666.7213               749.6112               760.5431
 Red. masses --      6.0207                 1.0752                 1.0811
 Frc consts  --      1.5768                 0.3560                 0.3684
 IR Inten    --      7.8148               138.6974               252.5915

                     34                     35                     36
                      A                      A                      A
 Frequencies --    799.9202               860.1567               901.8150
 Red. masses --      4.6425                 2.6480                 2.7317
 Frc consts  --      1.7502                 1.1543                 1.3089
 IR Inten    --     46.7376                22.0959                19.9765

                     37                     38                     39
                      A                      A                      A
 Frequencies --    975.3648              1024.6540              1060.6676
 Red. masses --      2.4786                 2.4882                 1.6515
 Frc consts  --      1.3893                 1.5392                 1.0946
 IR Inten    --     68.6956                29.7903                70.0843

                     40                     41                     42
                      A                      A                      A
 Frequencies --   1066.8802              1070.7617              1085.3163
 Red. masses --      1.7517                 5.1395                 3.9987
 Frc consts  --      1.1747                 3.4718                 2.7751
 IR Inten    --    125.3502                21.1337                 8.9104

                     43                     44                     45
                      A                      A                      A
 Frequencies --   1094.4768              1099.4944              1105.7933
 Red. masses --      5.2889                 3.1461                 3.0719
 Frc consts  --      3.7327                 2.2408                 2.2131
 IR Inten    --    370.7304                13.7069                 4.2851

                     46                     47                     48
                      A                      A                      A
 Frequencies --   1123.2742              1141.1972              1206.2351
 Red. masses --      2.8054                 2.5413                 1.4478
 Frc consts  --      2.0855                 1.9500                 1.2411
 IR Inten    --      4.7083                10.1230                23.6917

                     49                     50                     51
                      A                      A                      A
 Frequencies --   1211.8230              1234.5984              1242.8051
 Red. masses --      1.9796                 1.1654                 1.2352
 Frc consts  --      1.7128                 1.0466                 1.1241
 IR Inten    --     96.6898                52.0317                36.1606

                     52                     53                     54
                      A                      A                      A
 Frequencies --   1273.0165              1316.3319              1322.3358
 Red. masses --      1.3171                 1.1131                 1.3230
 Frc consts  --      1.2576                 1.1364                 1.3630
 IR Inten    --      3.1598                67.6746                 6.5209

                     55                     56                     57
                      A                      A                      A
 Frequencies --   1348.6855              1355.4729              1368.9933
 Red. masses --      1.2534                 1.2958                 1.2675
 Frc consts  --      1.3433                 1.4027                 1.3996
 IR Inten    --      3.9622                10.5251                 4.0709

                     58                     59                     60
                      A                      A                      A
 Frequencies --   1389.6689              1403.8508              1417.6075
 Red. masses --      1.2474                 1.3335                 1.3965
 Frc consts  --      1.4193                 1.5484                 1.6534
 IR Inten    --     98.9583                 6.8327                 7.1475

                     61                     62                     63
                      A                      A                      A
 Frequencies --   1438.4796              1444.9746              1474.3775
 Red. masses --      1.3511                 1.2414                 1.6719
 Frc consts  --      1.6472                 1.5271                 2.1413
 IR Inten    --     16.2202                60.4472                 4.0028

                     64                     65                     66
                      A                      A                      A
 Frequencies --   1480.2226              1511.0163              1553.3023
 Red. masses --      1.2699                 1.4417                 1.0945
 Frc consts  --      1.6394                 1.9394                 1.5559
 IR Inten    --    108.5428                15.2777                 0.4596

                     67                     68                     69
                      A                      A                      A
 Frequencies --   1747.4265              1764.2106              2917.3214
 Red. masses --      1.0825                 1.0702                 1.0830
 Frc consts  --      1.9475                 1.9626                 5.4306
 IR Inten    --    279.7160                38.7414               104.5384

                     70                     71                     72
                      A                      A                      A
 Frequencies --   2977.0899              3027.9979              3035.2903
 Red. masses --      1.0730                 1.0827                 1.0854
 Frc consts  --      5.6031                 5.8489                 5.8918
 IR Inten    --     52.7357                19.3659                47.1091

                     73                     74                     75
                      A                      A                      A
 Frequencies --   3055.1505              3080.5753              3102.6413
 Red. masses --      1.0865                 1.0868                 1.0920
 Frc consts  --      5.9751                 6.0767                 6.1934
 IR Inten    --     42.7798                26.0713                34.0233

                     76                     77                     78
                      A                      A                      A
 Frequencies --   3272.0914              3394.7211              3659.4260
 Red. masses --      1.0694                 1.0618                 1.0527
 Frc consts  --      6.7457                 7.2091                 8.3058
 IR Inten    --    535.7717               890.4205               217.3627

                     79                     80                     81
                      A                      A                      A
 Frequencies --   3670.8544              3692.3256              3739.7314
 Red. masses --      1.0666                 1.0656                 1.0714
 Frc consts  --      8.4683                 8.5597                 8.8284
 IR Inten    --     82.4919                38.9827                64.8768

                     82                     83                     84
                      A                      A                      A
 Frequencies --   3747.5345              3754.9361              3791.3803
 Red. masses --      1.0664                 1.0666                 1.0674
 Frc consts  --      8.8241                 8.8601                 9.0402
 IR Inten    --     23.5134                30.2208                41.7917

 - Thermochemistry -
 -------------------
 Temperature   298.150 Kelvin.  Pressure   1.00000 Atm.
 Atom     1 has atomic number  8 and mass  15.99491

 Molecular mass:   216.08452 amu.
 Principal axes and moments of inertia in atomic units:
                           1         2         3
     Eigenvalues --  2275.146343712.964084502.78391
           X            0.99994   0.01063   0.00013
           Y           -0.01063   0.99989   0.01034
           Z           -0.00002  -0.01034   0.99995
 This molecule is an asymmetric top.
 Rotational symmetry number  1.
 Warning -- assumption of classical behavior for rotation
           may cause significant error
 Rotational temperatures (Kelvin)      0.03807     0.02333     0.01924
 Rotational constants (GHZ):           0.79324     0.48606     0.40081
 Zero-point vibrational energy     652963.4 (Joules/Mol)
                                  156.06199 (Kcal/Mol)
 Warning -- explicit consideration of  30 degrees of freedom as
           vibrations may cause significant error
 Vibrational temperatures:     68.15    93.10    98.72   125.06   170.05
          (Kelvin)            192.04   229.56   253.52   282.24   310.47
                              331.82   346.26   368.04   380.06   404.71
                              422.63   466.17   511.39   519.21   529.18
                              561.01   584.83   623.01   659.36   675.51
                              725.82   765.92   814.26   826.17   834.87
                              959.26  1078.52  1094.25  1150.91  1237.57
                             1297.51  1403.33  1474.25  1526.06  1535.00
                             1540.59  1561.53  1574.71  1581.93  1590.99
                             1616.14  1641.93  1735.50  1743.54  1776.31
                             1788.12  1831.58  1893.91  1902.54  1940.46
                             1950.22  1969.67  1999.42  2019.83  2039.62
                             2069.65  2078.99  2121.30  2129.71  2174.01
                             2234.85  2514.15  2538.30  4197.37  4283.36
                             4356.61  4367.10  4395.67  4432.26  4464.00
                             4707.80  4884.24  5265.09  5281.53  5312.43
                             5380.63  5391.86  5402.51  5454.94

 Zero-point correction=                           0.248701 (Hartree/Particle)
 Thermal correction to Energy=                    0.266048
 Thermal correction to Enthalpy=                  0.266992
 Thermal correction to Gibbs Free Energy=         0.205000
 Sum of electronic and zero-point Energies=           -839.746637
 Sum of electronic and thermal Energies=              -839.729290
 Sum of electronic and thermal Enthalpies=            -839.728345
 Sum of electronic and thermal Free Energies=         -839.790338

                     E (Thermal)             CV                S
                      KCal/Mol        Cal/Mol-Kelvin    Cal/Mol-Kelvin
 Total                  166.948             64.353            130.474
 Electronic               0.000              0.000              0.000
 Translational            0.889              2.981             42.015
 Rotational               0.889              2.981             32.009
 Vibrational            165.170             58.391             56.450
 Vibration     1          0.595              1.979              4.924
 Vibration     2          0.597              1.971              4.308
 Vibration     3          0.598              1.969              4.193
 Vibration     4          0.601              1.958              3.728
 Vibration     5          0.608              1.934              3.130
 Vibration     6          0.613              1.920              2.895
 Vibration     7          0.621              1.892              2.555
 Vibration     8          0.628              1.872              2.368
 Vibration     9          0.636              1.845              2.169
 Vibration    10          0.645              1.817              1.994
 Vibration    11          0.652              1.794              1.874
 Vibration    12          0.658              1.778              1.798
 Vibration    13          0.666              1.753              1.690
 Vibration    14          0.671              1.739              1.634
 Vibration    15          0.681              1.708              1.526
 Vibration    16          0.689              1.685              1.452
 Vibration    17          0.709              1.627              1.290
 Vibration    18          0.731              1.564              1.142
 Vibration    19          0.735              1.553              1.118
 Vibration    20          0.740              1.538              1.089
 Vibration    21          0.758              1.492              1.000
 Vibration    22          0.771              1.456              0.939
 Vibration    23          0.794              1.398              0.849
 Vibration    24          0.816              1.343              0.771
 Vibration    25          0.827              1.318              0.739
 Vibration    26          0.860              1.240              0.647
 Vibration    27          0.887              1.178              0.582
 Vibration    28          0.922              1.105              0.512
 Vibration    29          0.931              1.087              0.496
 Vibration    30          0.937              1.074              0.485

 Normal termination of Gaussian 09 at Sun Jan 15 22:12:42 2017.
