 Gaussian 09, Revision E.01,
 Gaussian 09:  ES64L-G09RevE.01 30-Nov-2015

 -------------------------
 # b3lyp/6-31g(d) opt freq
 -------------------------

 -----------------------------------
 glo_2w_alpha_ircf_boat6_B3LYP_631Gd
 -----------------------------------
 Symbolic Z-matrix:
 Charge =  0 Multiplicity = 1

 SCF Done:  E(RB3LYP) =  -839.990199364     A.U. after   14 cycles
 SCF Done:  E(RB3LYP) =  -839.988958951     A.U. after   13 cycles
 SCF Done:  E(RB3LYP) =  -839.993483543     A.U. after   11 cycles
 SCF Done:  E(RB3LYP) =  -839.996738966     A.U. after   12 cycles
 SCF Done:  E(RB3LYP) =  -840.001285687     A.U. after   12 cycles
 SCF Done:  E(RB3LYP) =  -840.003590334     A.U. after   13 cycles
 SCF Done:  E(RB3LYP) =  -840.004505994     A.U. after   13 cycles
 SCF Done:  E(RB3LYP) =  -840.005180617     A.U. after   13 cycles
 SCF Done:  E(RB3LYP) =  -840.005654384     A.U. after   12 cycles
 SCF Done:  E(RB3LYP) =  -840.005612789     A.U. after   12 cycles
 SCF Done:  E(RB3LYP) =  -840.006414857     A.U. after    9 cycles
 SCF Done:  E(RB3LYP) =  -840.006418490     A.U. after    8 cycles
 SCF Done:  E(RB3LYP) =  -840.006421241     A.U. after    8 cycles
 SCF Done:  E(RB3LYP) =  -840.006422842     A.U. after    8 cycles
 SCF Done:  E(RB3LYP) =  -840.006424397     A.U. after    8 cycles
 SCF Done:  E(RB3LYP) =  -840.006425297     A.U. after    7 cycles
 SCF Done:  E(RB3LYP) =  -840.006425838     A.U. after    7 cycles
 SCF Done:  E(RB3LYP) =  -840.006426090     A.U. after    7 cycles
 SCF Done:  E(RB3LYP) =  -840.006426204     A.U. after    7 cycles
 Optimization completed.
    -- Stationary point found.
 Normal termination of Gaussian 09 at Sun Jan 15 22:08:42 2017.

 --------------------------------------------------------------------
 #N Geom=AllCheck Guess=TCheck SCRF=Check GenChk RB3LYP/6-31G(d) Freq
 --------------------------------------------------------------------

 Structure from the checkpoint file:  "/scratch/10464867.yak.local/Gau-22235.chk"
 -----------------------------------
 glo_2w_alpha_ircf_boat6_B3LYP_631Gd
 -----------------------------------
 Charge =  0 Multiplicity = 1

                         Standard orientation:
 ---------------------------------------------------------------------
 Center     Atomic      Atomic             Coordinates (Angstroms)
 Number     Number       Type             X           Y           Z
 ---------------------------------------------------------------------
      1          6           0        0.079776    1.079022   -0.048151
      2          6           0       -2.172926    0.007488    0.637968
      3          6           0       -1.454400    1.234357    0.023300
      4          6           0       -1.830079   -1.345804   -0.057864
      5          1           0       -2.556287   -2.081431    0.333448
      6          1           0       -3.242238    0.176077    0.470720
      7          1           0        0.321955    0.427486   -0.902952
      8          1           0       -1.691639    2.075604    0.687476
      9          6           0       -0.475181   -1.915130    0.298344
     10          8           0        0.497266    0.473927    1.171428
     11          6           0        0.742150    2.426998   -0.307934
     12          1           0        0.174364    2.949110   -1.088189
     13          1           0        0.720042    3.020648    0.616956
     14          8           0        2.095865    2.209963   -0.745021
     15          1           0        2.519632    3.075514   -0.846990
     16          8           0       -1.950376   -1.231637   -1.467036
     17          1           0       -1.174222   -1.700449   -1.835236
     18          8           0       -1.983433   -0.109049    2.033480
     19          1           0       -1.035853    0.085443    2.178669
     20          8           0       -1.985840    1.565169   -1.249637
     21          1           0       -2.013701    0.725240   -1.746401
     22          8           0        3.119822   -2.253075   -0.396350
     23          1           0        2.158048   -2.436834   -0.411337
     24          1           0        3.238344   -0.664846    0.435627
     25          1           0        3.373663   -2.221330   -1.330687
     26          8           0        0.286616   -2.280226   -0.589981
     27          1           0       -0.245103   -2.061319    1.361139
     28          8           0        3.111175    0.187133    0.918391
     29          1           0        3.095051    0.885723    0.234909
     30          1           0        1.493138    0.326138    1.166674
 ---------------------------------------------------------------------

 SCF Done:  E(RB3LYP) =  -840.006426204     A.U. after    1 cycles

 The electronic state is 1-A.
 Alpha  occ. eigenvalues --  -19.19315 -19.17592 -19.17414 -19.15682 -19.14625
 Alpha  occ. eigenvalues --  -19.14180 -19.13954 -19.13043 -10.30991 -10.26335
 Alpha  occ. eigenvalues --  -10.24862 -10.24258 -10.24185 -10.24036  -1.09222
 Alpha  occ. eigenvalues --   -1.04717  -1.04304  -1.02880  -1.01567  -1.01290
 Alpha  occ. eigenvalues --   -1.00915  -0.98404  -0.78062  -0.75991  -0.70354
 Alpha  occ. eigenvalues --   -0.65198  -0.60682  -0.58564  -0.55192  -0.54274
 Alpha  occ. eigenvalues --   -0.54106  -0.53307  -0.51836  -0.51306  -0.50120
 Alpha  occ. eigenvalues --   -0.46924  -0.46334  -0.45986  -0.45028  -0.43757
 Alpha  occ. eigenvalues --   -0.42007  -0.40857  -0.40242  -0.39791  -0.38548
 Alpha  occ. eigenvalues --   -0.37755  -0.37188  -0.35882  -0.34150  -0.32226
 Alpha  occ. eigenvalues --   -0.31947  -0.31083  -0.29695  -0.29312  -0.29256
 Alpha  occ. eigenvalues --   -0.27753  -0.27050  -0.25506
 Alpha virt. eigenvalues --   -0.05429   0.04632   0.05368   0.07239   0.09829
 Alpha virt. eigenvalues --    0.10678   0.12002   0.12856   0.14687   0.14767
 Alpha virt. eigenvalues --    0.15054   0.15696   0.16492   0.17265   0.18621

 Mulliken charges:
               1
     1  C    0.122938
     2  C    0.095205
     3  C    0.086890
     4  C    0.057775
     5  H    0.170979
     6  H    0.160588
     7  H    0.117746
     8  H    0.148657
     9  C    0.265338
    10  O   -0.715706
    11  C   -0.061204
    12  H    0.160808
    13  H    0.141300
    14  O   -0.640518
    15  H    0.407940
    16  O   -0.654397
    17  H    0.416705
    18  O   -0.651661
    19  H    0.431557
    20  O   -0.650190
    21  H    0.418822
    22  O   -0.805591
    23  H    0.431840
    24  H    0.430418
    25  H    0.397302
    26  O   -0.461836
    27  H    0.168631
    28  O   -0.848277
    29  H    0.413747
    30  H    0.444196
 Sum of Mulliken charges =   0.00000

 Dipole moment (field-independent basis, Debye):
    X=              1.2370    Y=              0.2049    Z=             -2.7109  Tot=              2.9868
 Quadrupole moment (field-independent basis, Debye-Ang):
   XX=            -92.0445   YY=            -73.2933   ZZ=            -87.0318
   XY=             10.3883   XZ=             -9.4527   YZ=              2.0457

  Exact polarizability: 104.858  -0.946  95.870  -3.849   0.583  86.890
 Approx polarizability: 138.447  -6.840 124.779  -6.751   3.657 137.315

                      1                      2                      3
                      A                      A                      A
 Frequencies --     39.4904                56.7794                68.1560
 Red. masses --      5.4900                 6.2053                 5.9399
 Frc consts  --      0.0050                 0.0118                 0.0163
 IR Inten    --      3.5056                 1.2259                 1.5508

                      4                      5                      6
                      A                      A                      A
 Frequencies --     84.1595                94.0013               114.5862
 Red. masses --      6.2704                 7.4316                 4.9151
 Frc consts  --      0.0262                 0.0387                 0.0380
 IR Inten    --      2.6844                 7.2271                 2.6693

                      7                      8                      9
                      A                      A                      A
 Frequencies --    159.5301               174.2867               197.0531
 Red. masses --      5.3582                 5.7263                 4.6626
 Frc consts  --      0.0803                 0.1025                 0.1067
 IR Inten    --      2.8094                17.0750                 6.1995

                     10                     11                     12
                      A                      A                      A
 Frequencies --    204.2451               219.0398               241.3009
 Red. masses --      5.0684                 5.7712                 4.1363
 Frc consts  --      0.1246                 0.1631                 0.1419
 IR Inten    --      9.0730                 6.0050                 4.8142

                     13                     14                     15
                      A                      A                      A
 Frequencies --    259.9542               271.3705               275.2550
 Red. masses --      5.9835                 1.1892                 3.4501
 Frc consts  --      0.2382                 0.0516                 0.1540
 IR Inten    --     26.8869                79.0814                41.7622

                     16                     17                     18
                      A                      A                      A
 Frequencies --    289.6062               301.0446               342.3264
 Red. masses --      2.5911                 1.6677                 2.8824
 Frc consts  --      0.1280                 0.0890                 0.1990
 IR Inten    --     26.1185                34.0915                43.9720

                     19                     20                     21
                      A                      A                      A
 Frequencies --    354.3644               382.4227               398.2414
 Red. masses --      5.2010                 1.6667                 3.2165
 Frc consts  --      0.3848                 0.1436                 0.3006
 IR Inten    --     12.3554                46.3236                15.7860

                     22                     23                     24
                      A                      A                      A
 Frequencies --    412.1798               459.9071               482.4659
 Red. masses --      3.8850                 2.4003                 1.5117
 Frc consts  --      0.3889                 0.2991                 0.2073
 IR Inten    --     12.8389                10.8031                21.1657

                     25                     26                     27
                      A                      A                      A
 Frequencies --    499.0863               515.3196               563.3983
 Red. masses --      3.9867                 2.8435                 1.0894
 Frc consts  --      0.5851                 0.4449                 0.2037
 IR Inten    --      6.6348                 9.3601                40.0099

                     28                     29                     30
                      A                      A                      A
 Frequencies --    579.3181               600.7060               644.3006
 Red. masses --      3.8300                 1.0818                 1.1101
 Frc consts  --      0.7573                 0.2300                 0.2715
 IR Inten    --     10.3704               181.4802               204.7297

                     31                     32                     33
                      A                      A                      A
 Frequencies --    675.7008               700.9259               721.0055
 Red. masses --      1.2324                 2.2628                 2.1172
 Frc consts  --      0.3315                 0.6550                 0.6485
 IR Inten    --     61.9602                81.1646                24.3397

                     34                     35                     36
                      A                      A                      A
 Frequencies --    737.5454               802.9013               819.9170
 Red. masses --      1.3034                 1.2152                 2.7910
 Frc consts  --      0.4177                 0.4616                 1.1055
 IR Inten    --     51.7710               186.9045               176.7676

                     37                     38                     39
                      A                      A                      A
 Frequencies --    899.6032               905.6460               997.4371
 Red. masses --      2.6059                 2.3678                 1.8427
 Frc consts  --      1.2425                 1.1442                 1.0801
 IR Inten    --      4.0815                36.8071                 6.1813

                     40                     41                     42
                      A                      A                      A
 Frequencies --   1033.8111              1053.7676              1080.3958
 Red. masses --      3.8314                 1.6163                 1.5655
 Frc consts  --      2.4126                 1.0575                 1.0766
 IR Inten    --     65.5247                71.0212                79.1035

                     43                     44                     45
                      A                      A                      A
 Frequencies --   1097.9772              1099.2862              1110.6134
 Red. masses --      4.1070                 3.4935                 3.9786
 Frc consts  --      2.9172                 2.4873                 2.8914
 IR Inten    --    104.3032                64.1791                88.7145

                     46                     47                     48
                      A                      A                      A
 Frequencies --   1135.9594              1139.6754              1158.9459
 Red. masses --      3.0905                 2.9539                 2.8976
 Frc consts  --      2.3496                 2.2605                 2.2931
 IR Inten    --     47.3100                 9.9529                 7.9525

                     49                     50                     51
                      A                      A                      A
 Frequencies --   1216.6917              1250.7477              1279.1469
 Red. masses --      1.1321                 1.2032                 1.1264
 Frc consts  --      0.9874                 1.1090                 1.0859
 IR Inten    --     28.4250                32.1006                 2.3532

                     52                     53                     54
                      A                      A                      A
 Frequencies --   1282.9076              1307.0124              1311.0046
 Red. masses --      1.1879                 1.2488                 1.2583
 Frc consts  --      1.1519                 1.2570                 1.2742
 IR Inten    --     14.2448                 8.3875                23.3348

                     55                     56                     57
                      A                      A                      A
 Frequencies --   1352.2622              1370.1657              1387.8756
 Red. masses --      1.3746                 1.3070                 1.2545
 Frc consts  --      1.4810                 1.4457                 1.4237
 IR Inten    --      2.0880                69.4414                20.5063

                     58                     59                     60
                      A                      A                      A
 Frequencies --   1403.6745              1418.4725              1456.8748
 Red. masses --      1.2371                 1.3600                 1.4340
 Frc consts  --      1.4361                 1.6123                 1.7933
 IR Inten    --     42.2285                19.3039                23.2183

                     61                     62                     63
                      A                      A                      A
 Frequencies --   1460.9471              1474.6220              1482.1625
 Red. masses --      1.3545                 1.2784                 1.2367
 Frc consts  --      1.7033                 1.6379                 1.6007
 IR Inten    --     29.8152                89.9829                46.7561

                     64                     65                     66
                      A                      A                      A
 Frequencies --   1535.3876              1552.3946              1729.4541
 Red. masses --      1.0937                 1.1881                 1.0750
 Frc consts  --      1.5191                 1.6870                 1.8944
 IR Inten    --      4.9552                86.8646                87.9356

                     67                     68                     69
                      A                      A                      A
 Frequencies --   1737.7492              1756.2567              2972.5598
 Red. masses --      1.0788                 8.5261                 1.0810
 Frc consts  --      1.9195                15.4945                 5.6278
 IR Inten    --     14.4212               186.3437                24.5327

                     70                     71                     72
                      A                      A                      A
 Frequencies --   3003.0029              3028.8602              3056.8281
 Red. masses --      1.0814                 1.0590                 1.0852
 Frc consts  --      5.7456                 5.7242                 5.9742
 IR Inten    --     48.9559                22.1626                40.5545

                     73                     74                     75
                      A                      A                      A
 Frequencies --   3076.2920              3083.2509              3086.6725
 Red. masses --      1.0750                 1.0868                 1.1043
 Frc consts  --      5.9940                 6.0872                 6.1988
 IR Inten    --   1159.7267                43.9678                37.0441

                     76                     77                     78
                      A                      A                      A
 Frequencies --   3101.1882              3465.3996              3600.9050
 Red. masses --      1.0906                 1.0593                 1.0608
 Frc consts  --      6.1799                 7.4950                 8.1039
 IR Inten    --     45.9646               429.3222               308.1105

                     79                     80                     81
                      A                      A                      A
 Frequencies --   3608.7047              3612.3282              3647.0140
 Red. masses --      1.0585                 1.0650                 1.0652
 Frc consts  --      8.1215                 8.1877                 8.3479
 IR Inten    --    113.8849               202.6832                96.2151

                     82                     83                     84
                      A                      A                      A
 Frequencies --   3655.7513              3760.0293              3807.6408
 Red. masses --      1.0706                 1.0664                 1.0721
 Frc consts  --      8.4298                 8.8830                 9.1581
 IR Inten    --    381.8728                27.5141                93.6923

 - Thermochemistry -
 -------------------
 Temperature   298.150 Kelvin.  Pressure   1.00000 Atm.
 Atom     1 has atomic number  6 and mass  12.00000

 Molecular mass:   216.08452 amu.
 Principal axes and moments of inertia in atomic units:
                           1         2         3
     Eigenvalues --  2646.408233508.543104685.82562
           X            0.99996   0.00467  -0.00718
           Y           -0.00467   0.99999  -0.00012
           Z            0.00718   0.00015   0.99997
 This molecule is an asymmetric top.
 Rotational symmetry number  1.
 Warning -- assumption of classical behavior for rotation
           may cause significant error
 Rotational temperatures (Kelvin)      0.03273     0.02469     0.01848
 Rotational constants (GHZ):           0.68196     0.51438     0.38515
 Zero-point vibrational energy     650692.2 (Joules/Mol)
                                  155.51918 (Kcal/Mol)
 Warning -- explicit consideration of  29 degrees of freedom as
           vibrations may cause significant error
 Vibrational temperatures:     56.82    81.69    98.06   121.09   135.25
          (Kelvin)            164.86   229.53   250.76   283.52   293.86
                              315.15   347.18   374.02   390.44   396.03
                              416.68   433.14   492.53   509.85   550.22
                              572.98   593.03   661.70   694.16   718.07
                              741.43   810.60   833.51   864.28   927.00
                              972.18  1008.47  1037.36  1061.16  1155.19
                             1179.68  1294.33  1303.02  1435.09  1487.42
                             1516.13  1554.45  1579.74  1581.63  1597.92
                             1634.39  1639.74  1667.46  1750.55  1799.54
                             1840.40  1845.82  1880.50  1886.24  1945.60
                             1971.36  1996.84  2019.57  2040.86  2096.12
                             2101.97  2121.65  2132.50  2209.08  2233.55
                             2488.30  2500.23  2526.86  4276.85  4320.65
                             4357.85  4398.09  4426.09  4436.10  4441.03
                             4461.91  4985.93  5180.89  5192.11  5197.33
                             5247.23  5259.80  5409.84  5478.34

 Zero-point correction=                           0.247836 (Hartree/Particle)
 Thermal correction to Energy=                    0.265326
 Thermal correction to Enthalpy=                  0.266270
 Thermal correction to Gibbs Free Energy=         0.203475
 Sum of electronic and zero-point Energies=           -839.758591
 Sum of electronic and thermal Energies=              -839.741100
 Sum of electronic and thermal Enthalpies=            -839.740156
 Sum of electronic and thermal Free Energies=         -839.802951

                     E (Thermal)             CV                S
                      KCal/Mol        Cal/Mol-Kelvin    Cal/Mol-Kelvin
 Total                  166.495             64.663            132.164
 Electronic               0.000              0.000              0.000
 Translational            0.889              2.981             42.015
 Rotational               0.889              2.981             32.142
 Vibrational            164.717             58.701             58.007
 Vibration     1          0.594              1.981              5.284
 Vibration     2          0.596              1.975              4.566
 Vibration     3          0.598              1.969              4.206
 Vibration     4          0.601              1.960              3.791
 Vibration     5          0.603              1.953              3.575
 Vibration     6          0.608              1.937              3.190
 Vibration     7          0.621              1.892              2.555
 Vibration     8          0.627              1.874              2.389
 Vibration     9          0.636              1.844              2.160
 Vibration    10          0.640              1.834              2.095
 Vibration    11          0.647              1.812              1.967
 Vibration    12          0.658              1.777              1.793
 Vibration    13          0.668              1.746              1.662
 Vibration    14          0.675              1.726              1.587
 Vibration    15          0.677              1.719              1.563
 Vibration    16          0.686              1.693              1.476
 Vibration    17          0.693              1.672              1.411
 Vibration    18          0.721              1.591              1.201
 Vibration    19          0.730              1.566              1.147
 Vibration    20          0.752              1.508              1.030
 Vibration    21          0.765              1.474              0.969
 Vibration    22          0.776              1.444              0.919
 Vibration    23          0.818              1.339              0.766
 Vibration    24          0.839              1.289              0.703
 Vibration    25          0.855              1.252              0.660
 Vibration    26          0.870              1.216              0.621
 Vibration    27          0.919              1.110              0.517
 Vibration    28          0.936              1.076              0.487
 Vibration    29          0.959              1.030              0.448

 Normal termination of Gaussian 09 at Sun Jan 15 22:40:28 2017.
