 Gaussian 09, Revision E.01,
 Gaussian 09:  ES64L-G09RevE.01 30-Nov-2015

 -------------------------
 # b3lyp/6-31g(d) opt freq
 -------------------------

 -----------------------------------
 glo_2w_alpha_ircr_boat6_B3LYP_631Gd
 -----------------------------------
 Symbolic Z-matrix:
 Charge =  0 Multiplicity = 1

 SCF Done:  E(RB3LYP) =  -840.001318607     A.U. after   14 cycles
 SCF Done:  E(RB3LYP) =  -839.985439135     A.U. after   14 cycles
 SCF Done:  E(RB3LYP) =  -840.003490512     A.U. after   11 cycles
 SCF Done:  E(RB3LYP) =  -840.002266411     A.U. after   12 cycles
 SCF Done:  E(RB3LYP) =  -840.004636373     A.U. after    9 cycles
 SCF Done:  E(RB3LYP) =  -840.006222725     A.U. after   11 cycles
 SCF Done:  E(RB3LYP) =  -840.008844706     A.U. after   11 cycles
 SCF Done:  E(RB3LYP) =  -840.008571058     A.U. after   13 cycles
 SCF Done:  E(RB3LYP) =  -840.010098567     A.U. after   11 cycles
 SCF Done:  E(RB3LYP) =  -840.011333175     A.U. after   11 cycles
 SCF Done:  E(RB3LYP) =  -840.013273410     A.U. after    8 cycles
 SCF Done:  E(RB3LYP) =  -840.013276915     A.U. after    8 cycles
 SCF Done:  E(RB3LYP) =  -840.013277641     A.U. after    8 cycles
 SCF Done:  E(RB3LYP) =  -840.013278429     A.U. after    7 cycles
 SCF Done:  E(RB3LYP) =  -840.013278471     A.U. after    7 cycles
 SCF Done:  E(RB3LYP) =  -840.013278514     A.U. after    6 cycles
 SCF Done:  E(RB3LYP) =  -840.013278532     A.U. after    6 cycles
 SCF Done:  E(RB3LYP) =  -840.013278542     A.U. after    6 cycles
 SCF Done:  E(RB3LYP) =  -840.013278536     A.U. after    6 cycles
 Optimization completed.
    -- Stationary point found.
 Normal termination of Gaussian 09 at Sun Jan 15 22:03:00 2017.

 --------------------------------------------------------------------
 #N Geom=AllCheck Guess=TCheck SCRF=Check GenChk RB3LYP/6-31G(d) Freq
 --------------------------------------------------------------------

 Structure from the checkpoint file:  "/scratch/10464866.yak.local/Gau-22201.chk"
 -----------------------------------
 glo_2w_alpha_ircr_boat6_B3LYP_631Gd
 -----------------------------------
 Charge =  0 Multiplicity = 1

                         Standard orientation:
 ---------------------------------------------------------------------
 Center     Atomic      Atomic             Coordinates (Angstroms)
 Number     Number       Type             X           Y           Z
 ---------------------------------------------------------------------
      1          6           0       -0.246217    0.972516   -0.264335
      2          6           0       -2.185333   -0.332748    0.721186
      3          6           0       -1.776262    0.980566    0.011865
      4          6           0       -1.427074   -1.510477    0.091791
      5          1           0       -1.741406   -2.454852    0.556372
      6          1           0       -3.261196   -0.468051    0.580081
      7          1           0       -0.074570    0.629276   -1.289648
      8          1           0       -2.039234    1.804989    0.685976
      9          6           0        0.100601   -1.327869    0.323344
     10          8           0        0.406122    0.054543    0.641095
     11          6           0        0.359113    2.352494   -0.116877
     12          1           0       -0.293837    3.054602   -0.651736
     13          1           0        0.384921    2.637681    0.945736
     14          8           0        1.676704    2.371635   -0.686176
     15          1           0        1.994118    3.287878   -0.672541
     16          8           0       -1.731620   -1.521050   -1.302704
     17          1           0       -0.929843   -1.871341   -1.737517
     18          8           0       -1.966086   -0.281119    2.125560
     19          1           0       -1.032918   -0.033696    2.241387
     20          8           0       -2.492951    1.201925   -1.189714
     21          1           0       -2.405359    0.365929   -1.687242
     22          8           0        3.363945   -1.803326   -0.274574
     23          1           0        1.736229   -1.833539   -0.645773
     24          1           0        3.470113   -0.904926    0.144362
     25          1           0        3.898938   -1.774475   -1.081803
     26          8           0        0.750742   -1.766390   -0.814953
     27          1           0        0.427033   -1.863447    1.221679
     28          8           0        3.202075    0.617678    0.912239
     29          1           0        2.914315    1.257343    0.226718
     30          1           0        2.332277    0.368568    1.275917
 ---------------------------------------------------------------------

 SCF Done:  E(RB3LYP) =  -840.013278536     A.U. after    1 cycles

 The electronic state is 1-A.
 Alpha  occ. eigenvalues --  -19.18561 -19.17957 -19.15701 -19.15466 -19.15115
 Alpha  occ. eigenvalues --  -19.14637 -19.14609 -19.13846 -10.29744 -10.25855
 Alpha  occ. eigenvalues --  -10.24925 -10.24314 -10.23946 -10.23721  -1.08394
 Alpha  occ. eigenvalues --   -1.05270  -1.03094  -1.02812  -1.01463  -1.01276
 Alpha  occ. eigenvalues --   -1.00498  -0.99461  -0.78878  -0.76542  -0.70024
 Alpha  occ. eigenvalues --   -0.65113  -0.63103  -0.58169  -0.55566  -0.54559
 Alpha  occ. eigenvalues --   -0.53858  -0.53243  -0.52592  -0.51294  -0.50971
 Alpha  occ. eigenvalues --   -0.46426  -0.46262  -0.44925  -0.43642  -0.43614
 Alpha  occ. eigenvalues --   -0.42487  -0.41418  -0.40391  -0.38668  -0.38525
 Alpha  occ. eigenvalues --   -0.37686  -0.37163  -0.35545  -0.33614  -0.32495
 Alpha  occ. eigenvalues --   -0.31148  -0.31016  -0.30750  -0.30242  -0.29785
 Alpha  occ. eigenvalues --   -0.28326  -0.27029  -0.24855
 Alpha virt. eigenvalues --    0.03721   0.06122   0.06871   0.08722   0.10363
 Alpha virt. eigenvalues --    0.11302   0.12278   0.13044   0.13686   0.14223
 Alpha virt. eigenvalues --    0.15255   0.15897   0.16755   0.17910   0.18843

 Mulliken charges:
               1
     1  C    0.126445
     2  C    0.100766
     3  C    0.082195
     4  C    0.073735
     5  H    0.145420
     6  H    0.162810
     7  H    0.161638
     8  H    0.143415
     9  C    0.328089
    10  O   -0.556201
    11  C   -0.079819
    12  H    0.167296
    13  H    0.141852
    14  O   -0.629609
    15  H    0.410843
    16  O   -0.664969
    17  H    0.429820
    18  O   -0.638698
    19  H    0.399039
    20  O   -0.647416
    21  H    0.416496
    22  O   -0.822478
    23  H    0.446998
    24  H    0.431614
    25  H    0.398011
    26  O   -0.682403
    27  H    0.145997
    28  O   -0.828817
    29  H    0.422605
    30  H    0.415328
 Sum of Mulliken charges =  -0.00000

 Dipole moment (field-independent basis, Debye):
    X=              2.5901    Y=              2.2366    Z=             -1.2495  Tot=              3.6432
 Quadrupole moment (field-independent basis, Debye-Ang):
   XX=            -93.2982   YY=            -74.2870   ZZ=            -85.7035
   XY=              6.1450   XZ=             -6.9038   YZ=              2.0715

  Exact polarizability: 101.651  -0.225  96.013  -1.724   0.143  83.703
 Approx polarizability: 130.122  -2.245 125.178   0.503   1.879 129.519

                      1                      2                      3
                      A                      A                      A
 Frequencies --     45.2964                58.7619                74.2585
 Red. masses --      5.1210                 5.8900                 5.9179
 Frc consts  --      0.0062                 0.0120                 0.0192
 IR Inten    --      4.0981                 2.1887                 3.5378

                      4                      5                      6
                      A                      A                      A
 Frequencies --    106.0916               120.6116               126.1343
 Red. masses --      5.8374                 4.2798                 5.9299
 Frc consts  --      0.0387                 0.0367                 0.0556
 IR Inten    --      5.9769                10.2267                 4.9697

                      7                      8                      9
                      A                      A                      A
 Frequencies --    179.0351               203.7629               219.8292
 Red. masses --      4.9507                 4.1036                 4.2231
 Frc consts  --      0.0935                 0.1004                 0.1202
 IR Inten    --      1.3485                 7.0091                 4.9410

                     10                     11                     12
                      A                      A                      A
 Frequencies --    227.3932               239.8553               257.9364
 Red. masses --      4.0065                 4.6358                 4.1539
 Frc consts  --      0.1221                 0.1571                 0.1628
 IR Inten    --     21.3449                 7.8513                29.1758

                     13                     14                     15
                      A                      A                      A
 Frequencies --    271.3046               302.2851               309.6741
 Red. masses --      1.5822                 4.5771                 3.6342
 Frc consts  --      0.0686                 0.2464                 0.2053
 IR Inten    --     76.6623                25.2282                37.1942

                     16                     17                     18
                      A                      A                      A
 Frequencies --    332.7569               370.2209               389.7947
 Red. masses --      1.2501                 1.4370                 2.9287
 Frc consts  --      0.0816                 0.1160                 0.2622
 IR Inten    --     78.0783                23.2648                17.5452

                     19                     20                     21
                      A                      A                      A
 Frequencies --    406.2591               426.0984               454.0212
 Red. masses --      3.5636                 3.1664                 1.6779
 Frc consts  --      0.3465                 0.3387                 0.2038
 IR Inten    --     41.8641                 2.0832                27.7229

                     22                     23                     24
                      A                      A                      A
 Frequencies --    475.0526               480.8595               525.3465
 Red. masses --      4.1481                 2.5236                 1.1645
 Frc consts  --      0.5515                 0.3438                 0.1894
 IR Inten    --     14.7856                54.6916                27.3027

                     25                     26                     27
                      A                      A                      A
 Frequencies --    527.4801               551.2809               582.2669
 Red. masses --      5.6464                 1.1605                 3.8890
 Frc consts  --      0.9256                 0.2078                 0.7768
 IR Inten    --     31.3650                87.2741                 4.6341

                     28                     29                     30
                      A                      A                      A
 Frequencies --    590.4238               653.4825               686.4608
 Red. masses --      3.6182                 1.1328                 1.3638
 Frc consts  --      0.7431                 0.2850                 0.3786
 IR Inten    --      3.6507               194.9739                76.9741

                     31                     32                     33
                      A                      A                      A
 Frequencies --    701.6425               709.0658               791.8652
 Red. masses --      1.3955                 1.5918                 2.8020
 Frc consts  --      0.4048                 0.4715                 1.0352
 IR Inten    --     68.8076                 4.0429                 3.4929

                     34                     35                     36
                      A                      A                      A
 Frequencies --    807.9867               862.7570               873.0049
 Red. masses --      1.1538                 4.1323                 2.5647
 Frc consts  --      0.4438                 1.8123                 1.1516
 IR Inten    --    177.0867                66.5272                14.3868

                     37                     38                     39
                      A                      A                      A
 Frequencies --    910.4932               993.7014               996.2722
 Red. masses --      2.9152                 1.9006                 1.5554
 Frc consts  --      1.4239                 1.1057                 0.9096
 IR Inten    --     15.1537               135.0559               254.4590

                     40                     41                     42
                      A                      A                      A
 Frequencies --   1031.1124              1054.8095              1073.4508
 Red. masses --      3.3359                 3.7371                 3.1329
 Frc consts  --      2.0897                 2.4498                 2.1270
 IR Inten    --     51.6594                92.3933               140.7007

                     43                     44                     45
                      A                      A                      A
 Frequencies --   1091.2928              1099.7322              1108.7998
 Red. masses --      3.5173                 4.1904                 4.1652
 Frc consts  --      2.4680                 2.9859                 3.0171
 IR Inten    --     39.1223                54.4725                52.1854

                     46                     47                     48
                      A                      A                      A
 Frequencies --   1133.9921              1143.6102              1175.9295
 Red. masses --      2.3632                 2.6826                 4.0726
 Frc consts  --      1.7905                 2.0671                 3.3181
 IR Inten    --      5.0351                 4.1135                99.3218

                     49                     50                     51
                      A                      A                      A
 Frequencies --   1226.7506              1252.9252              1274.2617
 Red. masses --      1.1826                 1.3111                 1.1887
 Frc consts  --      1.0486                 1.2127                 1.1372
 IR Inten    --     31.0440                64.7118                 1.9355

                     52                     53                     54
                      A                      A                      A
 Frequencies --   1280.6369              1305.6396              1329.2335
 Red. masses --      1.1407                 1.2887                 1.2538
 Frc consts  --      1.1023                 1.2944                 1.3052
 IR Inten    --     14.7693                11.0563                65.3771

                     55                     56                     57
                      A                      A                      A
 Frequencies --   1338.4827              1349.6845              1386.3631
 Red. masses --      1.2507                 1.3226                 1.3401
 Frc consts  --      1.3201                 1.4196                 1.5176
 IR Inten    --     23.3856                 8.5808                 7.7298

                     58                     59                     60
                      A                      A                      A
 Frequencies --   1394.1572              1413.9935              1422.8641
 Red. masses --      1.2420                 1.4038                 1.2137
 Frc consts  --      1.4224                 1.6537                 1.4478
 IR Inten    --      9.5881                 4.7016                 8.9201

                     61                     62                     63
                      A                      A                      A
 Frequencies --   1446.9606              1455.1284              1470.7676
 Red. masses --      1.2905                 1.4639                 1.2511
 Frc consts  --      1.5919                 1.8263                 1.5946
 IR Inten    --     19.4395                87.0647                81.1221

                     64                     65                     66
                      A                      A                      A
 Frequencies --   1480.5040              1529.3454              1553.1513
 Red. masses --      1.4845                 1.0851                 1.2167
 Frc consts  --      1.9171                 1.4954                 1.7293
 IR Inten    --     13.8626                 7.8562                54.2985

                     67                     68                     69
                      A                      A                      A
 Frequencies --   1758.0544              1782.4239              3018.2216
 Red. masses --      1.0740                 1.0726                 1.0610
 Frc consts  --      1.9559                 2.0078                 5.6946
 IR Inten    --    147.3377               168.9981                29.7020

                     70                     71                     72
                      A                      A                      A
 Frequencies --   3041.0353              3062.8681              3073.8441
 Red. masses --      1.0860                 1.0866                 1.1004
 Frc consts  --      5.9174                 6.0061                 6.1256
 IR Inten    --     34.6789                29.1372                21.2077

                     73                     74                     75
                      A                      A                      A
 Frequencies --   3077.8029              3095.3692              3112.0484
 Red. masses --      1.0872                 1.0872                 1.0877
 Frc consts  --      6.0677                 6.1376                 6.2065
 IR Inten    --     66.9564                20.8067                32.7156

                     76                     77                     78
                      A                      A                      A
 Frequencies --   3151.1056              3315.8643              3600.3676
 Red. masses --      1.0709                 1.0628                 1.0570
 Frc consts  --      6.2650                 6.8851                 8.0727
 IR Inten    --   1051.8342               996.6319               253.0911

                     79                     80                     81
                      A                      A                      A
 Frequencies --   3637.0268              3649.0724              3707.0351
 Red. masses --      1.0652                 1.0645                 1.0667
 Frc consts  --      8.3017                 8.3517                 8.6369
 IR Inten    --    134.9541                43.6757               169.2315

                     82                     83                     84
                      A                      A                      A
 Frequencies --   3711.5212              3753.4667              3797.8851
 Red. masses --      1.0658                 1.0664                 1.0668
 Frc consts  --      8.6504                 8.8517                 9.0662
 IR Inten    --      5.2075                29.7658                42.9018

 - Thermochemistry -
 -------------------
 Temperature   298.150 Kelvin.  Pressure   1.00000 Atm.
 Atom     1 has atomic number  6 and mass  12.00000

 Molecular mass:   216.08452 amu.
 Principal axes and moments of inertia in atomic units:
                           1         2         3
     Eigenvalues --  2294.017363562.741954497.89326
           X            0.99999   0.00052  -0.00363
           Y           -0.00050   0.99999   0.00416
           Z            0.00363  -0.00415   0.99998
 This molecule is an asymmetric top.
 Rotational symmetry number  1.
 Warning -- assumption of classical behavior for rotation
           may cause significant error
 Rotational temperatures (Kelvin)      0.03776     0.02431     0.01926
 Rotational constants (GHZ):           0.78672     0.50656     0.40124
 Zero-point vibrational energy     658002.4 (Joules/Mol)
                                  157.26635 (Kcal/Mol)
 Warning -- explicit consideration of  28 degrees of freedom as
           vibrations may cause significant error
 Vibrational temperatures:     65.17    84.55   106.84   152.64   173.53
          (Kelvin)            181.48   257.59   293.17   316.28   327.17
                              345.10   371.11   390.35   434.92   445.55
                              478.76   532.66   560.83   584.52   613.06
                              653.23   683.49   691.85   755.86   758.93
                              793.17   837.75   849.49   940.21   987.66
                             1009.51  1020.19  1139.32  1162.51  1241.31
                             1256.06  1309.99  1429.71  1433.41  1483.54
                             1517.63  1544.45  1570.12  1582.27  1595.31
                             1631.56  1645.40  1691.90  1765.02  1802.68
                             1833.38  1842.55  1878.52  1912.47  1925.78
                             1941.89  1994.66  2005.88  2034.42  2047.18
                             2081.85  2093.60  2116.10  2130.11  2200.38
                             2234.64  2529.45  2564.51  4342.54  4375.37
                             4406.78  4422.57  4428.27  4453.54  4477.54
                             4533.73  4770.78  5180.12  5232.86  5250.19
                             5333.59  5340.04  5400.39  5464.30

 Zero-point correction=                           0.250620 (Hartree/Particle)
 Thermal correction to Energy=                    0.267027
 Thermal correction to Enthalpy=                  0.267971
 Thermal correction to Gibbs Free Energy=         0.207900
 Sum of electronic and zero-point Energies=           -839.762659
 Sum of electronic and thermal Energies=              -839.746252
 Sum of electronic and thermal Enthalpies=            -839.745308
 Sum of electronic and thermal Free Energies=         -839.805378

                     E (Thermal)             CV                S
                      KCal/Mol        Cal/Mol-Kelvin    Cal/Mol-Kelvin
 Total                  167.562             62.420            126.429
 Electronic               0.000              0.000              0.000
 Translational            0.889              2.981             42.015
 Rotational               0.889              2.981             31.975
 Vibrational            165.784             56.459             52.439
 Vibration     1          0.595              1.979              5.013
 Vibration     2          0.596              1.974              4.498
 Vibration     3          0.599              1.966              4.037
 Vibration     4          0.605              1.944              3.339
 Vibration     5          0.609              1.932              3.091
 Vibration     6          0.611              1.927              3.004
 Vibration     7          0.629              1.868              2.338
 Vibration     8          0.639              1.835              2.099
 Vibration     9          0.647              1.811              1.961
 Vibration    10          0.651              1.799              1.899
 Vibration    11          0.657              1.779              1.804
 Vibration    12          0.667              1.749              1.676
 Vibration    13          0.675              1.726              1.588
 Vibration    14          0.694              1.669              1.404
 Vibration    15          0.699              1.655              1.364
 Vibration    16          0.715              1.610              1.247
 Vibration    17          0.742              1.533              1.079
 Vibration    18          0.758              1.492              1.001
 Vibration    19          0.771              1.457              0.940
 Vibration    20          0.788              1.413              0.871
 Vibration    21          0.812              1.352              0.784
 Vibration    22          0.832              1.305              0.724
 Vibration    23          0.837              1.293              0.708
 Vibration    24          0.880              1.194              0.598
 Vibration    25          0.882              1.189              0.593
 Vibration    26          0.907              1.137              0.542
 Vibration    27          0.939              1.070              0.481
 Vibration    28          0.948              1.052              0.466

 Normal termination of Gaussian 09 at Sun Jan 15 22:35:06 2017.
