 Gaussian 09, Revision E.01,
 Gaussian 09:  ES64L-G09RevE.01 30-Nov-2015

 -------------------------
 # b3lyp/6-31g(d) opt freq
 -------------------------

 -----------------------------------
 glo_1w_alpha_ircr_boat6_B3LYP_631Gd
 -----------------------------------
 Symbolic Z-matrix:
 Charge =  0 Multiplicity = 1

 SCF Done:  E(RB3LYP) =  -839.969171161     A.U. after   14 cycles
 SCF Done:  E(RB3LYP) =  -839.949780371     A.U. after   16 cycles
 SCF Done:  E(RB3LYP) =  -839.971698375     A.U. after   12 cycles
 SCF Done:  E(RB3LYP) =  -839.973404445     A.U. after   12 cycles
 SCF Done:  E(RB3LYP) =  -839.977798371     A.U. after   13 cycles
 SCF Done:  E(RB3LYP) =  -839.977817091     A.U. after   15 cycles
 SCF Done:  E(RB3LYP) =  -839.982084884     A.U. after   12 cycles
 SCF Done:  E(RB3LYP) =  -839.977777181     A.U. after   14 cycles
 SCF Done:  E(RB3LYP) =  -839.983571466     A.U. after   11 cycles
 SCF Done:  E(RB3LYP) =  -839.984272791     A.U. after   12 cycles
 SCF Done:  E(RB3LYP) =  -839.988622523     A.U. after    9 cycles
 SCF Done:  E(RB3LYP) =  -839.988630153     A.U. after   10 cycles
 SCF Done:  E(RB3LYP) =  -839.988636146     A.U. after   10 cycles
 SCF Done:  E(RB3LYP) =  -839.988640328     A.U. after    8 cycles
 SCF Done:  E(RB3LYP) =  -839.988643127     A.U. after    8 cycles
 SCF Done:  E(RB3LYP) =  -839.988644585     A.U. after    8 cycles
 SCF Done:  E(RB3LYP) =  -839.988644800     A.U. after    7 cycles
 SCF Done:  E(RB3LYP) =  -839.988644912     A.U. after    7 cycles
 SCF Done:  E(RB3LYP) =  -839.988644981     A.U. after    7 cycles
 Optimization completed.
    -- Stationary point found.
 Normal termination of Gaussian 09 at Mon Jan 16 00:22:15 2017.

 --------------------------------------------------------------------
 #N Geom=AllCheck Guess=TCheck SCRF=Check GenChk RB3LYP/6-31G(d) Freq
 --------------------------------------------------------------------

 Structure from the checkpoint file:  "/scratch/10464868.yak.local/Gau-3487.chk"
 -----------------------------------
 glo_1w_alpha_ircr_boat6_B3LYP_631Gd
 -----------------------------------
 Charge =  0 Multiplicity = 1

                         Standard orientation:
 ---------------------------------------------------------------------
 Center     Atomic      Atomic             Coordinates (Angstroms)
 Number     Number       Type             X           Y           Z
 ---------------------------------------------------------------------
      1          6           0       -0.615774    0.842903    0.140821
      2          6           0        1.558265   -0.499636   -0.030762
      3          6           0        0.889532    0.834935    0.406155
      4          6           0        0.854437   -1.834338    0.363721
      5          1           0        1.553507   -2.627905    0.037575
      6          1           0        2.542338   -0.519312    0.446244
      7          1           0       -1.085089    0.115171    0.816535
      8          1           0        1.359707    1.607341   -0.220796
      9          6           0       -0.424965   -2.120596   -0.398590
     10          8           0       -0.766254    0.437225   -1.222047
     11          6           0       -1.278351    2.185969    0.409911
     12          1           0       -0.948686    2.565226    1.384290
     13          1           0       -0.992052    2.897921   -0.376312
     14          8           0       -2.700547    1.967069    0.408726
     15          1           0       -3.146359    2.826154    0.435010
     16          8           0        0.638453   -1.907106    1.747568
     17          1           0       -0.306634   -2.125290    1.861158
     18          8           0        1.805508   -0.493692   -1.441297
     19          1           0        0.976757   -0.156967   -1.839037
     20          8           0        1.085856    1.130406    1.778006
     21          1           0        2.031176    1.312932    1.898056
     22          8           0       -3.325132   -0.367833   -1.075357
     23          1           0       -3.122785   -1.163309   -0.549965
     24          1           0       -1.714321    0.171017   -1.365335
     25          1           0       -3.439625    0.356386   -0.427179
     26          8           0        3.829734    1.397909   -0.840118
     27          1           0        4.728981    1.081918   -1.010973
     28          1           0        3.255993    0.782064   -1.338152
     29          8           0       -1.472058   -2.337714    0.194048
     30          1           0       -0.356249   -2.188885   -1.494890
 ---------------------------------------------------------------------

 SCF Done:  E(RB3LYP) =  -839.988644981     A.U. after    1 cycles

 The electronic state is 1-A.
 Alpha  occ. eigenvalues --  -19.17766 -19.17242 -19.16106 -19.15364 -19.15183
 Alpha  occ. eigenvalues --  -19.14968 -19.14779 -19.12558 -10.29748 -10.25282
 Alpha  occ. eigenvalues --  -10.24888 -10.24345 -10.24266 -10.24066  -1.07710
 Alpha  occ. eigenvalues --   -1.04781  -1.03819  -1.02286  -1.02257  -1.01727
 Alpha  occ. eigenvalues --   -1.00399  -0.98356  -0.78053  -0.75569  -0.70307
 Alpha  occ. eigenvalues --   -0.65249  -0.59772  -0.57639  -0.55210  -0.53976
 Alpha  occ. eigenvalues --   -0.53354  -0.52948  -0.52147  -0.50612  -0.48933
 Alpha  occ. eigenvalues --   -0.48211  -0.46488  -0.45585  -0.44263  -0.43161
 Alpha  occ. eigenvalues --   -0.42272  -0.40238  -0.39854  -0.38281  -0.37612
 Alpha  occ. eigenvalues --   -0.36731  -0.36321  -0.35856  -0.35667  -0.32864
 Alpha  occ. eigenvalues --   -0.30845  -0.30056  -0.29795  -0.28533  -0.28411
 Alpha  occ. eigenvalues --   -0.28249  -0.27659  -0.25176
 Alpha virt. eigenvalues --   -0.04473   0.04649   0.06701   0.07255   0.08310
 Alpha virt. eigenvalues --    0.10844   0.11800   0.12572   0.13243   0.13914
 Alpha virt. eigenvalues --    0.15115   0.15854   0.16602   0.17748   0.19707

 Mulliken charges:
               1
     1  C    0.097499
     2  C    0.087876
     3  C    0.101420
     4  C    0.080561
     5  H    0.154646
     6  H    0.151442
     7  H    0.140554
     8  H    0.151834
     9  C    0.241177
    10  O   -0.705670
    11  C   -0.045051
    12  H    0.161997
    13  H    0.138813
    14  O   -0.646362
    15  H    0.408947
    16  O   -0.629833
    17  H    0.410642
    18  O   -0.667625
    19  H    0.433780
    20  O   -0.626731
    21  H    0.408312
    22  O   -0.819712
    23  H    0.421082
    24  H    0.443474
    25  H    0.428645
    26  O   -0.822413
    27  H    0.383308
    28  H    0.416643
    29  O   -0.448355
    30  H    0.149097
 Sum of Mulliken charges =  -0.00000

 Dipole moment (field-independent basis, Debye):
    X=              0.0571    Y=              1.1353    Z=             -0.2577  Tot=              1.1656
 Quadrupole moment (field-independent basis, Debye-Ang):
   XX=            -77.3843   YY=            -76.8270   ZZ=            -89.2118
   XY=            -10.1066   XZ=             -5.6673   YZ=              4.2979

  Exact polarizability: 110.654   1.555  92.248  -0.570   2.620  83.478
 Approx polarizability: 149.638   6.605 119.798  -4.790   1.188 129.982

                      1                      2                      3
                      A                      A                      A
 Frequencies --     27.3486                49.3819                55.5681
 Red. masses --      5.6098                 5.4528                 6.6229
 Frc consts  --      0.0025                 0.0078                 0.0120
 IR Inten    --      3.8264                 4.8345                 6.2470

                      4                      5                      6
                      A                      A                      A
 Frequencies --     84.2057                96.6241               116.2424
 Red. masses --      6.5163                 4.5179                 5.7672
 Frc consts  --      0.0272                 0.0249                 0.0459
 IR Inten    --      0.1492                 0.7447                 7.1290

                      7                      8                      9
                      A                      A                      A
 Frequencies --    117.5522               144.2496               156.5940
 Red. masses --      5.9666                 1.6543                 3.0479
 Frc consts  --      0.0486                 0.0203                 0.0440
 IR Inten    --      0.6931                81.3456                21.9962

                     10                     11                     12
                      A                      A                      A
 Frequencies --    159.7168               167.9190               189.3440
 Red. masses --      3.7033                 4.6784                 4.8193
 Frc consts  --      0.0557                 0.0777                 0.1018
 IR Inten    --      1.7275                19.2420                 4.0899

                     13                     14                     15
                      A                      A                      A
 Frequencies --    217.1207               227.0737               244.7032
 Red. masses --      2.5330                 1.8118                 3.5315
 Frc consts  --      0.0704                 0.0550                 0.1246
 IR Inten    --     46.0002                52.1548                34.6460

                     16                     17                     18
                      A                      A                      A
 Frequencies --    273.7040               297.2821               315.0890
 Red. masses --      4.4017                 2.9931                 1.3599
 Frc consts  --      0.1943                 0.1559                 0.0795
 IR Inten    --     10.6280                12.2873                48.9469

                     19                     20                     21
                      A                      A                      A
 Frequencies --    325.9406               352.4875               367.4042
 Red. masses --      5.3359                 2.0419                 3.0679
 Frc consts  --      0.3340                 0.1495                 0.2440
 IR Inten    --     20.0610                53.6397                60.1063

                     22                     23                     24
                      A                      A                      A
 Frequencies --    376.0164               389.6913               417.5519
 Red. masses --      1.8107                 1.8183                 1.2154
 Frc consts  --      0.1508                 0.1627                 0.1248
 IR Inten    --    128.8395                72.2911                48.6775

                     25                     26                     27
                      A                      A                      A
 Frequencies --    434.8398               474.5566               494.8146
 Red. masses --      1.6249                 3.8093                 4.0192
 Frc consts  --      0.1810                 0.5054                 0.5798
 IR Inten    --     47.5028                 7.9175                16.9424

                     28                     29                     30
                      A                      A                      A
 Frequencies --    508.5568               545.5104               583.5884
 Red. masses --      3.1683                 1.0672                 4.4331
 Frc consts  --      0.4828                 0.1871                 0.8896
 IR Inten    --     27.7235               182.7704                 8.0027

                     31                     32                     33
                      A                      A                      A
 Frequencies --    638.0201               691.5825               711.2010
 Red. masses --      1.2779                 1.6983                 1.3272
 Frc consts  --      0.3065                 0.4786                 0.3955
 IR Inten    --     84.6998                82.2254               255.2689

                     34                     35                     36
                      A                      A                      A
 Frequencies --    733.9335               761.0538               823.0792
 Red. masses --      3.1377                 1.0820                 3.8886
 Frc consts  --      0.9958                 0.3692                 1.5521
 IR Inten    --      1.1280               185.2188                44.3218

                     37                     38                     39
                      A                      A                      A
 Frequencies --    906.7625               914.5384               967.7207
 Red. masses --      2.5903                 2.5499                 1.0867
 Frc consts  --      1.2548                 1.2566                 0.5996
 IR Inten    --     43.5055                 2.1768               113.7331

                     40                     41                     42
                      A                      A                      A
 Frequencies --    998.9563              1039.4206              1064.4792
 Red. masses --      1.8751                 4.3667                 3.7025
 Frc consts  --      1.1025                 2.7796                 2.4718
 IR Inten    --      7.6592                62.2545                86.0456

                     43                     44                     45
                      A                      A                      A
 Frequencies --   1075.0678              1105.5751              1111.2664
 Red. masses --      2.6937                 3.3035                 4.0213
 Frc consts  --      1.8343                 2.3790                 2.9258
 IR Inten    --     42.3635                49.5197               120.4031

                     46                     47                     48
                      A                      A                      A
 Frequencies --   1133.2307              1136.0535              1170.7379
 Red. masses --      2.1254                 3.1937                 3.2028
 Frc consts  --      1.6081                 2.4285                 2.5864
 IR Inten    --     28.7844                 4.8983                30.2147

                     49                     50                     51
                      A                      A                      A
 Frequencies --   1216.8706              1253.3113              1269.1624
 Red. masses --      1.1040                 1.2699                 1.0850
 Frc consts  --      0.9632                 1.1753                 1.0297
 IR Inten    --     26.7029                 0.8556                18.4640

                     52                     53                     54
                      A                      A                      A
 Frequencies --   1272.9833              1292.0064              1323.0453
 Red. masses --      1.2145                 1.1994                 1.4180
 Frc consts  --      1.1595                 1.1797                 1.4624
 IR Inten    --     98.2963                14.8780                37.9803

                     55                     56                     57
                      A                      A                      A
 Frequencies --   1354.4238              1365.4871              1397.1963
 Red. masses --      1.3091                 1.2222                 1.2066
 Frc consts  --      1.4149                 1.3427                 1.3878
 IR Inten    --      7.9236                26.1572                52.1328

                     58                     59                     60
                      A                      A                      A
 Frequencies --   1411.0576              1421.2794              1449.5739
 Red. masses --      1.2142                 1.2759                 1.3804
 Frc consts  --      1.4244                 1.5185                 1.7090
 IR Inten    --     34.2041                 1.8772                18.7725

                     61                     62                     63
                      A                      A                      A
 Frequencies --   1458.9707              1469.3450              1485.6918
 Red. masses --      1.3331                 1.4613                 1.3234
 Frc consts  --      1.6718                 1.8588                 1.7210
 IR Inten    --     21.5792                 1.7953                94.6649

                     64                     65                     66
                      A                      A                      A
 Frequencies --   1530.3877              1539.4268              1710.8657
 Red. masses --      1.3423                 1.0969                 1.0767
 Frc consts  --      1.8522                 1.5315                 1.8569
 IR Inten    --     28.0639                13.5474                56.3860

                     67                     68                     69
                      A                      A                      A
 Frequencies --   1734.4035              1769.0323              2951.4522
 Red. masses --      1.0761                 9.0875                 1.0807
 Frc consts  --      1.9072                16.7559                 5.5466
 IR Inten    --     73.3344               140.8749                31.1188

                     70                     71                     72
                      A                      A                      A
 Frequencies --   3021.1623              3035.3803              3054.8783
 Red. masses --      1.0833                 1.0612                 1.0851
 Frc consts  --      5.8258                 5.7606                 5.9663
 IR Inten    --     13.8368                25.5658                17.8965

                     73                     74                     75
                      A                      A                      A
 Frequencies --   3056.8493              3096.9911              3098.5783
 Red. masses --      1.0853                 1.1047                 1.0879
 Frc consts  --      5.9751                 6.2425                 6.1539
 IR Inten    --     53.9473                24.3023                33.7974

                     76                     77                     78
                      A                      A                      A
 Frequencies --   3289.9200              3598.7597              3616.1595
 Red. masses --      1.0690                 1.0609                 1.0492
 Frc consts  --      6.8171                 8.0953                 8.0836
 IR Inten    --    730.3984               261.9676               171.6696

                     79                     80                     81
                      A                      A                      A
 Frequencies --   3619.8887              3635.0816              3733.3874
 Red. masses --      1.0592                 1.0649                 1.0790
 Frc consts  --      8.1771                 8.2907                 8.8605
 IR Inten    --     87.8765                54.0606               169.0943

                     82                     83                     84
                      A                      A                      A
 Frequencies --   3746.4796              3774.0528              3807.9528
 Red. masses --      1.0664                 1.0666                 1.0731
 Frc consts  --      8.8186                 8.9510                 9.1678
 IR Inten    --     32.8126                31.7062                55.3455

 - Thermochemistry -
 -------------------
 Temperature   298.150 Kelvin.  Pressure   1.00000 Atm.
 Atom     1 has atomic number  6 and mass  12.00000

 Molecular mass:   216.08452 amu.
 Principal axes and moments of inertia in atomic units:
                           1         2         3
     Eigenvalues --  2519.813773674.688144634.51953
           X            0.99991  -0.01143  -0.00661
           Y            0.01151   0.99986   0.01213
           Z            0.00647  -0.01221   0.99990
 This molecule is an asymmetric top.
 Rotational symmetry number  1.
 Warning -- assumption of classical behavior for rotation
           may cause significant error
 Rotational temperatures (Kelvin)      0.03437     0.02357     0.01869
 Rotational constants (GHZ):           0.71622     0.49113     0.38941
 Zero-point vibrational energy     646311.5 (Joules/Mol)
                                  154.47216 (Kcal/Mol)
 Warning -- explicit consideration of  30 degrees of freedom as
           vibrations may cause significant error
 Vibrational temperatures:     39.35    71.05    79.95   121.15   139.02
          (Kelvin)            167.25   169.13   207.54   225.30   229.80
                              241.60   272.42   312.39   326.71   352.07
                              393.80   427.72   453.34   468.96   507.15
                              528.61   541.00   560.68   600.76   625.64
                              682.78   711.93   731.70   784.87   839.65
                              917.97   995.03  1023.26  1055.97  1094.99
                             1184.23  1304.63  1315.82  1392.33  1437.27
                             1495.49  1531.55  1546.78  1590.67  1598.86
                             1630.46  1634.53  1684.43  1750.80  1803.23
                             1826.04  1831.54  1858.91  1903.56  1948.71
                             1964.63  2010.25  2030.19  2044.90  2085.61
                             2099.13  2114.06  2137.58  2201.88  2214.89
                             2461.55  2495.42  2545.24  4246.48  4346.77
                             4367.23  4395.28  4398.12  4455.87  4458.16
                             4733.46  5177.81  5202.84  5208.21  5230.07
                             5371.51  5390.34  5430.01  5478.79

 Zero-point correction=                           0.246167 (Hartree/Particle)
 Thermal correction to Energy=                    0.264906
 Thermal correction to Enthalpy=                  0.265851
 Thermal correction to Gibbs Free Energy=         0.199703
 Sum of electronic and zero-point Energies=           -839.742478
 Sum of electronic and thermal Energies=              -839.723739
 Sum of electronic and thermal Enthalpies=            -839.722794
 Sum of electronic and thermal Free Energies=         -839.788942

                     E (Thermal)             CV                S
                      KCal/Mol        Cal/Mol-Kelvin    Cal/Mol-Kelvin
 Total                  166.231             66.922            139.219
 Electronic               0.000              0.000              0.000
 Translational            0.889              2.981             42.015
 Rotational               0.889              2.981             32.129
 Vibrational            164.454             60.960             65.075
 Vibration     1          0.593              1.984              6.013
 Vibration     2          0.595              1.978              4.842
 Vibration     3          0.596              1.975              4.609
 Vibration     4          0.601              1.960              3.790
 Vibration     5          0.603              1.952              3.521
 Vibration     6          0.608              1.936              3.162
 Vibration     7          0.608              1.935              3.140
 Vibration     8          0.616              1.909              2.747
 Vibration     9          0.620              1.895              2.591
 Vibration    10          0.622              1.892              2.553
 Vibration    11          0.625              1.882              2.459
 Vibration    12          0.633              1.855              2.234
 Vibration    13          0.646              1.815              1.983
 Vibration    14          0.651              1.800              1.902
 Vibration    15          0.660              1.772              1.768
 Vibration    16          0.676              1.722              1.573
 Vibration    17          0.691              1.679              1.432
 Vibration    18          0.702              1.645              1.335
 Vibration    19          0.710              1.624              1.280
 Vibration    20          0.729              1.570              1.155
 Vibration    21          0.740              1.539              1.091
 Vibration    22          0.747              1.521              1.055
 Vibration    23          0.758              1.492              1.001
 Vibration    24          0.781              1.432              0.900
 Vibration    25          0.795              1.394              0.843
 Vibration    26          0.831              1.306              0.725
 Vibration    27          0.850              1.262              0.671
 Vibration    28          0.864              1.231              0.637
 Vibration    29          0.901              1.150              0.554
 Vibration    30          0.940              1.067              0.479

 Normal termination of Gaussian 09 at Mon Jan 16 00:53:32 2017.
