 Gaussian 09, Revision D.01,
 Gaussian 09:  ES64L-G09RevD.01 24-Apr-2013

 ----------------------------------------------------------------------
 # opt=(TS,CalcFC,NoEigenTest,MaxCycle=500,cartesian) Freq B3LYP 6-31G(
 d)
 ----------------------------------------------------------------------

 -------------------------
 boat1_Alpha_B3LYP_6-31G_d
 -------------------------
 Symbolic Z-matrix:
 Charge =  0 Multiplicity = 1

 SCF Done:  E(RB3LYP) =  -839.962926128     A.U. after   14 cycles
 SCF Done:  E(RB3LYP) =  -839.963059790     A.U. after   11 cycles
 SCF Done:  E(RB3LYP) =  -839.963018577     A.U. after   11 cycles
 SCF Done:  E(RB3LYP) =  -839.963066243     A.U. after   11 cycles
 SCF Done:  E(RB3LYP) =  -839.963086465     A.U. after   11 cycles
 SCF Done:  E(RB3LYP) =  -839.963103564     A.U. after   11 cycles
 SCF Done:  E(RB3LYP) =  -839.963058585     A.U. after   11 cycles
 SCF Done:  E(RB3LYP) =  -839.962938891     A.U. after   11 cycles
 SCF Done:  E(RB3LYP) =  -839.962883684     A.U. after   11 cycles
 SCF Done:  E(RB3LYP) =  -839.963036040     A.U. after   11 cycles
 SCF Done:  E(RB3LYP) =  -839.962833491     A.U. after   11 cycles
 SCF Done:  E(RB3LYP) =  -839.962959187     A.U. after   11 cycles
 SCF Done:  E(RB3LYP) =  -839.963060457     A.U. after   10 cycles
 SCF Done:  E(RB3LYP) =  -839.963099563     A.U. after   11 cycles
 SCF Done:  E(RB3LYP) =  -839.963115924     A.U. after   10 cycles
 SCF Done:  E(RB3LYP) =  -839.963122357     A.U. after    9 cycles
 SCF Done:  E(RB3LYP) =  -839.963128462     A.U. after    8 cycles
 SCF Done:  E(RB3LYP) =  -839.963127419     A.U. after    7 cycles
 SCF Done:  E(RB3LYP) =  -839.963126892     A.U. after    7 cycles
 Optimization completed.
    -- Stationary point found.
 Normal termination of Gaussian 09 at Sun Jan  8 20:14:56 2017.

 --------------------------------------------------------------------
 #N Geom=AllCheck Guess=TCheck SCRF=Check GenChk RB3LYP/6-31G(d) Freq
 --------------------------------------------------------------------

 Structure from the checkpoint file:  "/home/iawad/Gau-19140.chk"
 -------------------------
 boat1_Alpha_B3LYP_6-31G_d
 -------------------------
 Charge =  0 Multiplicity = 1

                         Standard orientation:
 ---------------------------------------------------------------------
 Center     Atomic      Atomic             Coordinates (Angstroms)
 Number     Number       Type             X           Y           Z
 ---------------------------------------------------------------------
      1          1           0       -0.896053    0.994775    1.010687
      2          6           0       -0.813806    1.004988   -0.084747
      3          6           0        1.076008   -0.719345   -0.098991
      4          6           0       -1.267689   -1.650997   -0.137104
      5          6           0        0.131445   -1.755275   -0.717176
      6          8           0       -1.693469    0.024531   -0.658009
      7          6           0        0.655901    0.712861   -0.451246
      8          1           0        0.060287   -1.562354   -1.800134
      9          1           0        0.798973    0.851219   -1.534660
     10          6           0       -1.303524    2.354045   -0.621591
     11          1           0       -2.350737    2.501881   -0.324398
     12          1           0       -1.253153    2.334185   -1.719182
     13          1           0        1.046279   -0.833634    0.994040
     14          8           0       -0.476887    3.396633   -0.085217
     15          1           0       -0.683930    4.223832   -0.544783
     16          8           0        0.612844   -3.061363   -0.472500
     17          1           0        1.579712   -2.971419   -0.571709
     18          8           0        2.357405   -1.043343   -0.613494
     19          1           0        3.041647   -0.628830   -0.035393
     20          8           0        1.501958    1.610542    0.277123
     21          1           0        1.131461    2.508106    0.163032
     22          1           0       -2.048914   -2.083050   -0.782130
     23          8           0       -1.436040   -1.695258    1.136312
     24          8           0       -3.378496   -0.316734    1.014828
     25          1           0       -2.673397   -0.004127    0.049932
     26          1           0       -2.564823   -1.137470    1.280330
     27          1           0       -4.194920   -0.750113    0.718018
     28          8           0        3.911230    0.516212    1.025019
     29          1           0        3.183558    1.141590    0.813150
     30          1           0        3.765630    0.287994    1.955834
 ---------------------------------------------------------------------

 SCF Done:  E(RB3LYP) =  -839.963126892     A.U. after    1 cycles

 The electronic state is 1-A.
 Alpha  occ. eigenvalues --  -19.18705 -19.17420 -19.16328 -19.15790 -19.14537
 Alpha  occ. eigenvalues --  -19.13120 -19.13071 -19.13042 -10.29131 -10.25814
 Alpha  occ. eigenvalues --  -10.25301 -10.24415 -10.23293 -10.23137  -1.06647
 Alpha  occ. eigenvalues --   -1.05575  -1.03390  -1.02122  -1.00545  -1.00383
 Alpha  occ. eigenvalues --   -0.99730  -0.98777  -0.78064  -0.76037  -0.69689
 Alpha  occ. eigenvalues --   -0.63592  -0.61358  -0.57202  -0.56484  -0.55420
 Alpha  occ. eigenvalues --   -0.53295  -0.52596  -0.51354  -0.50693  -0.49571
 Alpha  occ. eigenvalues --   -0.47367  -0.46198  -0.45450  -0.44578  -0.42498
 Alpha  occ. eigenvalues --   -0.41709  -0.40976  -0.40342  -0.39388  -0.37957
 Alpha  occ. eigenvalues --   -0.36996  -0.36501  -0.34147  -0.33871  -0.32970
 Alpha  occ. eigenvalues --   -0.30672  -0.30560  -0.29754  -0.28480  -0.27730
 Alpha  occ. eigenvalues --   -0.26403  -0.26266  -0.25342
 Alpha virt. eigenvalues --    0.01276   0.04053   0.05806   0.07153   0.10271
 Alpha virt. eigenvalues --    0.10973   0.11594   0.13457   0.13744   0.14382
 Alpha virt. eigenvalues --    0.16257   0.16759   0.17612   0.18007   0.18814

 Mulliken charges:
               1
     1  H    0.163273
     2  C    0.099730
     3  C    0.071881
     4  C    0.280655
     5  C    0.158887
     6  O   -0.647429
     7  C    0.142352
     8  H    0.120825
     9  H    0.127202
    10  C   -0.055497
    11  H    0.152339
    12  H    0.145602
    13  H    0.140541
    14  O   -0.637570
    15  H    0.413456
    16  O   -0.650445
    17  H    0.413565
    18  O   -0.691261
    19  H    0.434231
    20  O   -0.691308
    21  H    0.434374
    22  H    0.130733
    23  O   -0.583214
    24  O   -0.832787
    25  H    0.463457
    26  H    0.466802
    27  H    0.403650
    28  O   -0.804063
    29  H    0.434304
    30  H    0.395714
 Sum of Mulliken charges =   0.00000

 Dipole moment (field-independent basis, Debye):
    X=             -3.5926    Y=              4.5001    Z=             -1.1130  Tot=              5.8649
 Quadrupole moment (field-independent basis, Debye-Ang):
   XX=            -81.4019   YY=            -77.5780   ZZ=            -83.3453
   XY=             -0.6507   XZ=              9.0694   YZ=             -3.9170

  Exact polarizability: 109.372  -1.699 106.984   0.976  -1.613  80.233
 Approx polarizability: 139.360  -2.636 140.476   2.495  -5.263 129.698

 ******    1 imaginary frequencies (negative Signs) ******

                      1                      2                      3
                      A                      A                      A
 Frequencies --  -1469.9686                37.4220                56.9088
 Red. masses --      1.1135                 5.9460                 6.5516
 Frc consts  --      1.4176                 0.0049                 0.0125
 IR Inten    --    238.7620                 1.5124                 1.4466

                      4                      5                      6
                      A                      A                      A
 Frequencies --     89.4636               101.7052               135.8766
 Red. masses --      6.1644                 5.3307                 6.4599
 Frc consts  --      0.0291                 0.0325                 0.0703
 IR Inten    --      4.7323                 2.1642                 0.1716

                      7                      8                      9
                      A                      A                      A
 Frequencies --    154.8682               167.3537               196.0904
 Red. masses --      3.4447                 4.3507                 7.1231
 Frc consts  --      0.0487                 0.0718                 0.1614
 IR Inten    --      8.2572                 7.9603                 6.5421

                     10                     11                     12
                      A                      A                      A
 Frequencies --    209.5510               228.4246               269.8114
 Red. masses --      4.9521                 5.7694                 1.2904
 Frc consts  --      0.1281                 0.1774                 0.0553
 IR Inten    --      9.9753                 8.4405                67.3055

                     13                     14                     15
                      A                      A                      A
 Frequencies --    281.5659               301.4013               305.5748
 Red. masses --      4.6734                 1.0796                 3.9091
 Frc consts  --      0.2183                 0.0578                 0.2151
 IR Inten    --     23.4198                57.2280                21.0962

                     16                     17                     18
                      A                      A                      A
 Frequencies --    326.1858               337.2375               346.4342
 Red. masses --      5.9425                 1.1959                 4.3777
 Frc consts  --      0.3725                 0.0801                 0.3096
 IR Inten    --      8.3467                84.3812                 6.9405

                     19                     20                     21
                      A                      A                      A
 Frequencies --    379.2600               421.2184               452.1128
 Red. masses --      4.3238                 4.6647                 5.1028
 Frc consts  --      0.3664                 0.4876                 0.6145
 IR Inten    --      2.3022                 5.6394                 6.5135

                     22                     23                     24
                      A                      A                      A
 Frequencies --    479.8178               490.4159               513.0537
 Red. masses --      4.4206                 2.1978                 1.6856
 Frc consts  --      0.5996                 0.3114                 0.2614
 IR Inten    --     38.0481               109.0321                94.3641

                     25                     26                     27
                      A                      A                      A
 Frequencies --    521.0324               553.1242               584.5184
 Red. masses --      3.1963                 1.6876                 3.0840
 Frc consts  --      0.5112                 0.3042                 0.6208
 IR Inten    --     20.5068                49.9107                20.7988

                     28                     29                     30
                      A                      A                      A
 Frequencies --    605.0913               605.6801               657.4209
 Red. masses --      1.2317                 2.1461                 1.6093
 Frc consts  --      0.2657                 0.4639                 0.4098
 IR Inten    --     70.2389               105.2781                50.5142

                     31                     32                     33
                      A                      A                      A
 Frequencies --    689.7617               719.1440               722.9750
 Red. masses --      5.5614                 1.3045                 1.9427
 Frc consts  --      1.5590                 0.3975                 0.5983
 IR Inten    --     20.0413               360.7087               153.1190

                     34                     35                     36
                      A                      A                      A
 Frequencies --    775.5327               913.6022               923.0186
 Red. masses --      3.5951                 1.3263                 1.6057
 Frc consts  --      1.2740                 0.6522                 0.8060
 IR Inten    --     39.8243                77.0730                25.1940

                     37                     38                     39
                      A                      A                      A
 Frequencies --    966.8853              1012.0632              1020.2855
 Red. masses --      2.3334                 3.1083                 4.1151
 Frc consts  --      1.2852                 1.8758                 2.5239
 IR Inten    --     67.6793                56.3015               206.4924

                     40                     41                     42
                      A                      A                      A
 Frequencies --   1058.2001              1065.5171              1104.5572
 Red. masses --      3.6565                 5.6791                 2.9499
 Frc consts  --      2.4124                 3.7988                 2.1205
 IR Inten    --     56.2830                63.6267               296.4466

                     43                     44                     45
                      A                      A                      A
 Frequencies --   1108.6672              1127.8984              1131.8549
 Red. masses --      2.8842                 2.8815                 4.5928
 Frc consts  --      2.0887                 2.1598                 3.4667
 IR Inten    --     51.7808               180.1985                26.1130

                     46                     47                     48
                      A                      A                      A
 Frequencies --   1151.2367              1202.9707              1240.0649
 Red. masses --      2.6365                 1.3299                 1.2248
 Frc consts  --      2.0588                 1.1339                 1.1097
 IR Inten    --      1.9294               236.7921                40.5828

                     49                     50                     51
                      A                      A                      A
 Frequencies --   1254.3091              1271.5440              1287.6008
 Red. masses --      1.2265                 1.1963                 1.1506
 Frc consts  --      1.1369                 1.1396                 1.1239
 IR Inten    --     38.5275                28.6575              1738.1975

                     52                     53                     54
                      A                      A                      A
 Frequencies --   1300.9370              1311.2491              1341.3334
 Red. masses --      1.1502                 1.1597                 1.1879
 Frc consts  --      1.1469                 1.1749                 1.2592
 IR Inten    --    630.3867                54.6504                97.5019

                     55                     56                     57
                      A                      A                      A
 Frequencies --   1365.1799              1389.6036              1407.3474
 Red. masses --      1.2897                 1.2565                 1.1983
 Frc consts  --      1.4161                 1.4295                 1.3983
 IR Inten    --     30.8282               398.9444               173.4925

                     58                     59                     60
                      A                      A                      A
 Frequencies --   1410.7458              1437.8962              1450.3018
 Red. masses --      1.2976                 1.3590                 1.3905
 Frc consts  --      1.5215                 1.6554                 1.7232
 IR Inten    --    130.7604               305.1770                24.9970

                     61                     62                     63
                      A                      A                      A
 Frequencies --   1464.9501              1477.4180              1488.6104
 Red. masses --      1.2403                 1.4036                 1.4688
 Frc consts  --      1.5683                 1.8051                 1.9176
 IR Inten    --    104.7555                51.9865               170.4156

                     64                     65                     66
                      A                      A                      A
 Frequencies --   1503.1745              1547.2060              1573.1922
 Red. masses --      1.3242                 1.0949                 1.0831
 Frc consts  --      1.7628                 1.5443                 1.5793
 IR Inten    --    113.0028                 8.7550               158.9069

                     67                     68                     69
                      A                      A                      A
 Frequencies --   1601.8722              1687.4283              1721.2845
 Red. masses --      2.5678                 1.0839                 1.0763
 Frc consts  --      3.8821                 1.8184                 1.8788
 IR Inten    --    201.3775               139.1145                59.8873

                     70                     71                     72
                      A                      A                      A
 Frequencies --   1875.2095              2990.4232              3007.0729
 Red. masses --      1.0281                 1.0822                 1.0827
 Frc consts  --      2.1301                 5.7021                 5.7683
 IR Inten    --     14.6888                16.9656                17.5491

                     73                     74                     75
                      A                      A                      A
 Frequencies --   3017.1902              3026.5413              3040.3621
 Red. masses --      1.0888                 1.0560                 1.0847
 Frc consts  --      5.8396                 5.6989                 5.9074
 IR Inten    --     98.9454                46.3412                30.8482

                     76                     77                     78
                      A                      A                      A
 Frequencies --   3051.5114              3074.4576              3428.5301
 Red. masses --      1.0876                 1.1075                 1.0677
 Frc consts  --      5.9669                 6.1677                 7.3944
 IR Inten    --     24.0620                62.8573               453.7956

                     79                     80                     81
                      A                      A                      A
 Frequencies --   3560.1191              3614.9475              3658.0169
 Red. masses --      1.0580                 1.0651                 1.0645
 Frc consts  --      7.9009                 8.2003                 8.3921
 IR Inten    --    689.7909               188.1366                60.8540

                     82                     83                     84
                      A                      A                      A
 Frequencies --   3768.3912              3770.9303              3796.4361
 Red. masses --      1.0667                 1.0654                 1.0703
 Frc consts  --      8.9250                 8.9260                 9.0892
 IR Inten    --     34.1363                37.4356                63.6305

 - Thermochemistry -
 -------------------
 Temperature   298.150 Kelvin.  Pressure   1.00000 Atm.
 Atom     1 has atomic number  1 and mass   1.00783

 Molecular mass:   216.08452 amu.
 Principal axes and moments of inertia in atomic units:
                           1         2         3
     Eigenvalues --  2741.651863197.575715195.55964
           X            0.99988  -0.01236   0.00923
           Y            0.01240   0.99992  -0.00391
           Z           -0.00918   0.00403   0.99995
 This molecule is an asymmetric top.
 Rotational symmetry number  1.
 Warning -- assumption of classical behavior for rotation
           may cause significant error
 Rotational temperatures (Kelvin)      0.03159     0.02709     0.01667
 Rotational constants (GHZ):           0.65827     0.56441     0.34736
    1 imaginary frequencies ignored.
 Zero-point vibrational energy     638304.5 (Joules/Mol)
                                  152.55844 (Kcal/Mol)
 Warning -- explicit consideration of  28 degrees of freedom as
           vibrations may cause significant error
 Vibrational temperatures:     53.84    81.88   128.72   146.33   195.50
          (Kelvin)            222.82   240.78   282.13   301.50   328.65
                              388.20   405.11   433.65   439.65   469.31
                              485.21   498.44   545.67   606.04   650.49
                              690.35   705.60   738.17   749.65   795.82
                              840.99   870.59   871.44   945.88   992.41
                             1034.69  1040.20  1115.82  1314.47  1328.02
                             1391.13  1456.13  1467.96  1522.51  1533.04
                             1589.21  1595.12  1622.79  1628.48  1656.37
                             1730.80  1784.17  1804.67  1829.47  1852.57
                             1871.76  1886.59  1929.88  1964.19  1999.33
                             2024.86  2029.75  2068.81  2086.66  2107.73
                             2125.67  2141.78  2162.73  2226.08  2263.47
                             2304.73  2427.83  2476.54  2698.00  4302.55
                             4326.50  4341.06  4354.51  4374.40  4390.44
                             4423.45  4932.88  5122.21  5201.10  5263.06
                             5421.87  5425.52  5462.22

 Zero-point correction=                           0.243117 (Hartree/Particle)
 Thermal correction to Energy=                    0.259081
 Thermal correction to Enthalpy=                  0.260025
 Thermal correction to Gibbs Free Energy=         0.200625
 Sum of electronic and zero-point Energies=           -839.720010
 Sum of electronic and thermal Energies=              -839.704046
 Sum of electronic and thermal Enthalpies=            -839.703101
 Sum of electronic and thermal Free Energies=         -839.762502

                     E (Thermal)             CV                S
                      KCal/Mol        Cal/Mol-Kelvin    Cal/Mol-Kelvin
 Total                  162.576             60.627            125.019
 Electronic               0.000              0.000              0.000
 Translational            0.889              2.981             42.015
 Rotational               0.889              2.981             32.188
 Vibrational            160.798             54.665             50.816
 Vibration     1          0.594              1.982              5.391
 Vibration     2          0.596              1.975              4.562
 Vibration     3          0.602              1.957              3.672
 Vibration     4          0.604              1.948              3.421
 Vibration     5          0.614              1.918              2.861
 Vibration     6          0.620              1.897              2.612
 Vibration     7          0.624              1.883              2.465
 Vibration     8          0.636              1.845              2.169
 Vibration     9          0.642              1.826              2.048
 Vibration    10          0.651              1.798              1.891
 Vibration    11          0.674              1.729              1.597
 Vibration    12          0.681              1.708              1.524
 Vibration    13          0.693              1.671              1.409
 Vibration    14          0.696              1.663              1.386
 Vibration    15          0.710              1.623              1.279
 Vibration    16          0.718              1.601              1.225
 Vibration    17          0.724              1.583              1.182
 Vibration    18          0.749              1.514              1.042
 Vibration    19          0.784              1.424              0.888
 Vibration    20          0.811              1.356              0.789
 Vibration    21          0.836              1.295              0.711
 Vibration    22          0.846              1.271              0.683
 Vibration    23          0.868              1.221              0.626
 Vibration    24          0.876              1.203              0.608
 Vibration    25          0.909              1.133              0.538
 Vibration    26          0.941              1.065              0.477
 Vibration    27          0.964              1.021              0.441
 Vibration    28          0.964              1.020              0.440

 Optimization completed.
    -- Stationary point found.
 Normal termination of Gaussian 09 at Sun Jan  8 20:19:09 2017.
