 Gaussian 09, Revision D.01,
 Gaussian 09:  ES64L-G09RevD.01 24-Apr-2013

 ----------------------------------------------------------------------
 # opt=(TS,CalcFC,NoEigenTest,MaxCycle=500,cartesian) Freq B3LYP 6-31G(
 d)
 ----------------------------------------------------------------------

 -------------------------
 boat1_Alpha_B3LYP_6-31G_d
 -------------------------
 Symbolic Z-matrix:
 Charge =  0 Multiplicity = 1

 SCF Done:  E(RB3LYP) =  -839.966705399     A.U. after   14 cycles
 SCF Done:  E(RB3LYP) =  -839.966815202     A.U. after   11 cycles
 SCF Done:  E(RB3LYP) =  -839.966819601     A.U. after    9 cycles
 SCF Done:  E(RB3LYP) =  -839.966782274     A.U. after   11 cycles
 SCF Done:  E(RB3LYP) =  -839.966812711     A.U. after   10 cycles
 SCF Done:  E(RB3LYP) =  -839.966817623     A.U. after   10 cycles
 SCF Done:  E(RB3LYP) =  -839.966820040     A.U. after    8 cycles
 SCF Done:  E(RB3LYP) =  -839.966821385     A.U. after    8 cycles
 SCF Done:  E(RB3LYP) =  -839.966820681     A.U. after    8 cycles
 SCF Done:  E(RB3LYP) =  -839.966821482     A.U. after    8 cycles
 Optimization completed.
    -- Stationary point found.
 Normal termination of Gaussian 09 at Sun Jan  8 20:07:54 2017.

 --------------------------------------------------------------------
 #N Geom=AllCheck Guess=TCheck SCRF=Check GenChk RB3LYP/6-31G(d) Freq
 --------------------------------------------------------------------

 Structure from the checkpoint file:  "/home/iawad/Gau-7850.chk"
 -------------------------
 boat1_Alpha_B3LYP_6-31G_d
 -------------------------
 Charge =  0 Multiplicity = 1

                         Standard orientation:
 ---------------------------------------------------------------------
 Center     Atomic      Atomic             Coordinates (Angstroms)
 Number     Number       Type             X           Y           Z
 ---------------------------------------------------------------------
      1          1           0       -0.180611    1.050696    1.056986
      2          6           0        0.153246    1.120698    0.013371
      3          6           0        1.555700   -0.975203    0.219698
      4          6           0       -0.867408   -1.292952   -0.296191
      5          6           0        0.552419   -1.753337   -0.626743
      6          8           0       -0.723740    0.369496   -0.841943
      7          6           0        1.563222    0.517250   -0.105458
      8          1           0        0.744037   -1.551720   -1.692234
      9          1           0        1.902906    0.640598   -1.148742
     10          6           0        0.084454    2.575930   -0.455524
     11          1           0       -0.947121    2.941119   -0.361583
     12          1           0        0.375262    2.620672   -1.515600
     13          1           0        1.287508   -1.100228    1.277218
     14          8           0        0.976125    3.349184    0.356525
     15          1           0        0.993387    4.255913    0.016204
     16          8           0        0.632165   -3.142324   -0.359984
     17          1           0        1.582658   -3.327863   -0.265744
     18          8           0        2.835587   -1.551630   -0.038935
     19          1           0        3.471284   -1.040768    0.488897
     20          8           0        2.487664    1.105594    0.799562
     21          1           0        2.366376    2.071473    0.742586
     22          1           0       -1.607119   -1.556697   -1.070331
     23          8           0       -1.235879   -1.330544    0.931480
     24          8           0       -3.021551    1.096979   -0.585958
     25          1           0       -1.856605    0.773026   -0.760193
     26          1           0       -3.412260    0.283614    0.176351
     27          1           0       -3.502909    1.021249   -1.424629
     28          8           0       -3.555595   -0.629327    1.018966
     29          1           0       -2.481742   -1.044545    1.050896
     30          1           0       -4.143058   -1.330278    0.697302
 ---------------------------------------------------------------------

 SCF Done:  E(RB3LYP) =  -839.966821482     A.U. after    1 cycles

 The electronic state is 1-A.
 Alpha  occ. eigenvalues --  -19.17691 -19.16937 -19.16256 -19.14989 -19.14426
 Alpha  occ. eigenvalues --  -19.13662 -19.13098 -19.11904 -10.28445 -10.24990
 Alpha  occ. eigenvalues --  -10.24418 -10.23277 -10.22891 -10.22509  -1.05575
 Alpha  occ. eigenvalues --   -1.04481  -1.03076  -1.01611  -1.01316  -1.00565
 Alpha  occ. eigenvalues --   -0.99409  -0.97530  -0.77462  -0.75612  -0.68902
 Alpha  occ. eigenvalues --   -0.63238  -0.60763  -0.56522  -0.55972  -0.54810
 Alpha  occ. eigenvalues --   -0.53895  -0.52743  -0.52277  -0.49753  -0.49432
 Alpha  occ. eigenvalues --   -0.46385  -0.45433  -0.44903  -0.43228  -0.43066
 Alpha  occ. eigenvalues --   -0.41851  -0.40845  -0.39617  -0.39040  -0.37576
 Alpha  occ. eigenvalues --   -0.36207  -0.35565  -0.34532  -0.33548  -0.32037
 Alpha  occ. eigenvalues --   -0.30682  -0.30089  -0.29489  -0.27230  -0.26774
 Alpha  occ. eigenvalues --   -0.26475  -0.25554  -0.24925
 Alpha virt. eigenvalues --    0.02902   0.04782   0.05461   0.09043   0.09309
 Alpha virt. eigenvalues --    0.11225   0.12338   0.12669   0.14313   0.15000
 Alpha virt. eigenvalues --    0.15796   0.16990   0.17460   0.18427   0.19290

 Mulliken charges:
               1
     1  H    0.165827
     2  C    0.108908
     3  C    0.086250
     4  C    0.291113
     5  C    0.164060
     6  O   -0.655618
     7  C    0.135187
     8  H    0.118350
     9  H    0.113569
    10  C   -0.068601
    11  H    0.158930
    12  H    0.136721
    13  H    0.157788
    14  O   -0.634269
    15  H    0.409857
    16  O   -0.650847
    17  H    0.413804
    18  O   -0.665935
    19  H    0.414979
    20  O   -0.676870
    21  H    0.424509
    22  H    0.105712
    23  O   -0.585383
    24  O   -0.843503
    25  H    0.480687
    26  H    0.464929
    27  H    0.398778
    28  O   -0.837026
    29  H    0.471541
    30  H    0.396554
 Sum of Mulliken charges =   0.00000

 Dipole moment (field-independent basis, Debye):
    X=             -1.8585    Y=              3.6902    Z=             -3.6932  Tot=              5.5418
 Quadrupole moment (field-independent basis, Debye-Ang):
   XX=            -72.9219   YY=            -76.1011   ZZ=            -85.9591
   XY=              5.8925   XZ=              9.0833   YZ=             -3.9813

  Exact polarizability: 109.566   1.555 108.178   3.081  -2.755  78.974
 Approx polarizability: 138.380   2.897 139.235   3.740  -6.101 128.035

 ******    1 imaginary frequencies (negative Signs) ******

                      1                      2                      3
                      A                      A                      A
 Frequencies --  -1363.7161                51.4602                59.7370
 Red. masses --      1.0958                 5.8754                 6.2316
 Frc consts  --      1.2007                 0.0092                 0.0131
 IR Inten    --    274.0883                 4.0507                 1.4485

                      4                      5                      6
                      A                      A                      A
 Frequencies --     84.4223               107.9768               114.6019
 Red. masses --      5.3701                 6.1660                 4.7478
 Frc consts  --      0.0225                 0.0424                 0.0367
 IR Inten    --      2.5736                 4.8972                 2.8076

                      7                      8                      9
                      A                      A                      A
 Frequencies --    148.4221               173.2996               195.1567
 Red. masses --      6.8403                 3.4691                 4.6164
 Frc consts  --      0.0888                 0.0614                 0.1036
 IR Inten    --      0.5184                 4.2145                 4.4589

                     10                     11                     12
                      A                      A                      A
 Frequencies --    220.9404               239.1856               264.6595
 Red. masses --      6.2442                 3.5992                 1.2555
 Frc consts  --      0.1796                 0.1213                 0.0518
 IR Inten    --     13.5609                27.0035                41.2732

                     13                     14                     15
                      A                      A                      A
 Frequencies --    272.8247               298.8137               313.3932
 Red. masses --      3.7137                 4.6119                 5.6028
 Frc consts  --      0.1629                 0.2426                 0.3242
 IR Inten    --     14.2689                 5.1082                43.7467

                     16                     17                     18
                      A                      A                      A
 Frequencies --    331.0593               375.5777               413.2010
 Red. masses --      4.3193                 2.5757                 1.5590
 Frc consts  --      0.2789                 0.2141                 0.1568
 IR Inten    --      5.0302                26.7406               151.1121

                     19                     20                     21
                      A                      A                      A
 Frequencies --    416.2192               451.8629               461.0659
 Red. masses --      1.2008                 2.3331                 1.3672
 Frc consts  --      0.1226                 0.2807                 0.1712
 IR Inten    --     67.0132                53.4141                78.5774

                     22                     23                     24
                      A                      A                      A
 Frequencies --    472.7283               490.8759               511.2702
 Red. masses --      5.0679                 1.7235                 2.3319
 Frc consts  --      0.6673                 0.2447                 0.3591
 IR Inten    --     73.3312                65.8584               109.8538

                     25                     26                     27
                      A                      A                      A
 Frequencies --    532.7627               551.1267               559.8405
 Red. masses --      2.5609                 1.2648                 4.5488
 Frc consts  --      0.4283                 0.2263                 0.8400
 IR Inten    --     27.3362               106.4226               118.5199

                     28                     29                     30
                      A                      A                      A
 Frequencies --    578.0741               596.4921               625.1008
 Red. masses --      3.3932                 5.0754                 1.3811
 Frc consts  --      0.6681                 1.0640                 0.3180
 IR Inten    --    122.8545                 5.7828                37.8165

                     31                     32                     33
                      A                      A                      A
 Frequencies --    663.3960               693.0900               784.1690
 Red. masses --      2.9672                 5.3185                 4.8203
 Frc consts  --      0.7694                 1.5053                 1.7464
 IR Inten    --     98.1425               162.1976                17.6872

                     34                     35                     36
                      A                      A                      A
 Frequencies --    837.9938               924.8939               945.1134
 Red. masses --      1.1834                 1.9170                 2.7152
 Frc consts  --      0.4896                 0.9662                 1.4289
 IR Inten    --    144.3155                11.2214               211.6643

                     37                     38                     39
                      A                      A                      A
 Frequencies --   1013.5960              1020.4291              1057.4855
 Red. masses --      3.3893                 3.5119                 2.7380
 Frc consts  --      2.0516                 2.1546                 1.8040
 IR Inten    --    728.2125                65.5346                93.9268

                     40                     41                     42
                      A                      A                      A
 Frequencies --   1069.2887              1090.7539              1109.1199
 Red. masses --      5.7636                 1.9320                 3.1770
 Frc consts  --      3.8827                 1.3543                 2.3026
 IR Inten    --     28.7878              1420.8848                51.3266

                     43                     44                     45
                      A                      A                      A
 Frequencies --   1127.5011              1135.7207              1154.8949
 Red. masses --      2.6228                 3.9108                 2.7040
 Frc consts  --      1.9645                 2.9720                 2.1249
 IR Inten    --    135.5702                71.4226               116.5305

                     46                     47                     48
                      A                      A                      A
 Frequencies --   1157.4950              1220.9181              1232.5748
 Red. masses --      1.4842                 1.2455                 1.2486
 Frc consts  --      1.1716                 1.0939                 1.1177
 IR Inten    --    954.8992               130.6637               921.3776

                     49                     50                     51
                      A                      A                      A
 Frequencies --   1238.1365              1254.1512              1266.6445
 Red. masses --      1.1251                 1.1806                 1.2215
 Frc consts  --      1.0162                 1.0941                 1.1547
 IR Inten    --   1364.0794               222.6359                66.2127

                     52                     53                     54
                      A                      A                      A
 Frequencies --   1284.4470              1293.3024              1338.2012
 Red. masses --      1.1314                 1.1678                 1.2111
 Frc consts  --      1.0997                 1.1508                 1.2778
 IR Inten    --     45.9602                41.4292                67.8463

                     55                     56                     57
                      A                      A                      A
 Frequencies --   1357.1603              1369.3487              1383.3215
 Red. masses --      1.2655                 1.2928                 1.2098
 Frc consts  --      1.3734                 1.4283                 1.3640
 IR Inten    --    139.0618               233.6163               118.4254

                     58                     59                     60
                      A                      A                      A
 Frequencies --   1399.7854              1433.7906              1442.1870
 Red. masses --      1.2550                 1.3397                 1.5510
 Frc consts  --      1.4489                 1.6227                 1.9006
 IR Inten    --    103.7008                64.5186                25.5589

                     61                     62                     63
                      A                      A                      A
 Frequencies --   1450.9702              1464.5261              1486.8250
 Red. masses --      1.4726                 1.5145                 1.2474
 Frc consts  --      1.8266                 1.9139                 1.6247
 IR Inten    --     53.8708               155.3526               264.7728

                     64                     65                     66
                      A                      A                      A
 Frequencies --   1487.6554              1512.9527              1555.0906
 Red. masses --      1.4144                 1.3958                 1.0868
 Frc consts  --      1.8443                 1.8825                 1.5486
 IR Inten    --     94.4877               861.0962                 5.8639

                     67                     68                     69
                      A                      A                      A
 Frequencies --   1575.8235              1643.9881              1660.7777
 Red. masses --      1.2915                 1.2479                 1.1091
 Frc consts  --      1.8896                 1.9872                 1.8024
 IR Inten    --    276.5265               126.2808               638.4475

                     70                     71                     72
                      A                      A                      A
 Frequencies --   1694.1171              1850.9668              2975.5284
 Red. masses --      1.1344                 1.0441                 1.0822
 Frc consts  --      1.9183                 2.1076                 5.6455
 IR Inten    --    650.6854               133.8832                27.6590

                     73                     74                     75
                      A                      A                      A
 Frequencies --   2990.2763              3011.9961              3017.6223
 Red. masses --      1.0854                 1.0853                 1.0590
 Frc consts  --      5.7184                 5.8010                 5.6817
 IR Inten    --     71.7967                73.5086                53.2347

                     76                     77                     78
                      A                      A                      A
 Frequencies --   3055.4517              3059.5066              3073.9622
 Red. masses --      1.0857                 1.0888                 1.1008
 Frc consts  --      5.9717                 6.0049                 6.1286
 IR Inten    --     12.6410                25.0655                57.7929

                     79                     80                     81
                      A                      A                      A
 Frequencies --   3661.6397              3708.0061              3736.8692
 Red. masses --      1.0657                 1.0654                 1.0657
 Frc consts  --      8.4186                 8.6304                 8.7682
 IR Inten    --    183.4352                49.3110                41.0656

                     82                     83                     84
                      A                      A                      A
 Frequencies --   3766.8935              3781.1059              3786.3034
 Red. masses --      1.0666                 1.0652                 1.0653
 Frc consts  --      8.9174                 8.9730                 8.9980
 IR Inten    --     28.3752                29.1698                36.7669

 - Thermochemistry -
 -------------------
 Temperature   298.150 Kelvin.  Pressure   1.00000 Atm.
 Atom     1 has atomic number  1 and mass   1.00783

 Molecular mass:   216.08452 amu.
 Principal axes and moments of inertia in atomic units:
                           1         2         3
     Eigenvalues --  2737.806013106.236515227.75096
           X            0.99990   0.01378   0.00414
           Y           -0.01375   0.99988  -0.00645
           Z           -0.00423   0.00639   0.99997
 This molecule is an asymmetric top.
 Rotational symmetry number  1.
 Warning -- assumption of classical behavior for rotation
           may cause significant error
 Rotational temperatures (Kelvin)      0.03164     0.02788     0.01657
 Rotational constants (GHZ):           0.65919     0.58101     0.34522
    1 imaginary frequencies ignored.
 Zero-point vibrational energy     629354.9 (Joules/Mol)
                                  150.41942 (Kcal/Mol)
 Warning -- explicit consideration of  28 degrees of freedom as
           vibrations may cause significant error
 Vibrational temperatures:     74.04    85.95   121.46   155.35   164.89
          (Kelvin)            213.55   249.34   280.79   317.88   344.13
                              380.79   392.53   429.93   450.90   476.32
                              540.37   594.50   598.85   650.13   663.37
                              680.15   706.26   735.60   766.53   792.95
                              805.48   831.72   858.22   899.38   954.48
                              997.20  1128.24  1205.68  1330.71  1359.81
                             1458.34  1468.17  1521.48  1538.47  1569.35
                             1595.77  1622.22  1634.05  1661.63  1665.38
                             1756.63  1773.40  1781.40  1804.44  1822.42
                             1848.03  1860.77  1925.37  1952.65  1970.18
                             1990.29  2013.98  2062.90  2074.98  2087.62
                             2107.12  2139.21  2140.40  2176.80  2237.43
                             2267.26  2365.33  2389.49  2437.45  2663.13
                             4281.12  4302.34  4333.59  4341.68  4396.11
                             4401.94  4422.74  5268.28  5334.99  5376.51
                             5419.71  5440.16  5447.64

 Zero-point correction=                           0.239709 (Hartree/Particle)
 Thermal correction to Energy=                    0.255487
 Thermal correction to Enthalpy=                  0.256431
 Thermal correction to Gibbs Free Energy=         0.197587
 Sum of electronic and zero-point Energies=           -839.727113
 Sum of electronic and thermal Energies=              -839.711335
 Sum of electronic and thermal Enthalpies=            -839.710391
 Sum of electronic and thermal Free Energies=         -839.769235

                     E (Thermal)             CV                S
                      KCal/Mol        Cal/Mol-Kelvin    Cal/Mol-Kelvin
 Total                  160.320             60.240            123.848
 Electronic               0.000              0.000              0.000
 Translational            0.889              2.981             42.015
 Rotational               0.889              2.981             32.164
 Vibrational            158.543             54.278             49.669
 Vibration     1          0.596              1.977              4.760
 Vibration     2          0.597              1.974              4.466
 Vibration     3          0.601              1.960              3.785
 Vibration     4          0.606              1.943              3.305
 Vibration     5          0.608              1.937              3.189
 Vibration     6          0.618              1.904              2.692
 Vibration     7          0.627              1.875              2.399
 Vibration     8          0.636              1.847              2.178
 Vibration     9          0.648              1.809              1.951
 Vibration    10          0.657              1.781              1.809
 Vibration    11          0.671              1.738              1.631
 Vibration    12          0.676              1.723              1.578
 Vibration    13          0.692              1.676              1.424
 Vibration    14          0.701              1.648              1.344
 Vibration    15          0.713              1.613              1.255
 Vibration    16          0.746              1.522              1.057
 Vibration    17          0.777              1.442              0.915
 Vibration    18          0.779              1.435              0.905
 Vibration    19          0.811              1.357              0.790
 Vibration    20          0.819              1.336              0.763
 Vibration    21          0.830              1.311              0.730
 Vibration    22          0.847              1.270              0.681
 Vibration    23          0.866              1.225              0.631
 Vibration    24          0.888              1.178              0.581
 Vibration    25          0.906              1.137              0.542
 Vibration    26          0.915              1.118              0.524
 Vibration    27          0.935              1.079              0.489
 Vibration    28          0.954              1.039              0.456

 Optimization completed.
    -- Stationary point found.
 Normal termination of Gaussian 09 at Sun Jan  8 20:11:39 2017.
