 Gaussian 09, Revision E.01,
 Gaussian 09:  ES64L-G09RevE.01 30-Nov-2015

 ----------------------------------------------------------------------
 # opt=(TS,CalcFC,NoEigenTest,MaxCycle=500,cartesian) Freq B3LYP 6-31G(
 d)
 ----------------------------------------------------------------------

 ------------------------------------
 glo_2w_beta_ts_boat1_B3LYP_631Gd.log
 ------------------------------------
 Symbolic Z-matrix:
 Charge =  0 Multiplicity = 1

 SCF Done:  E(RB3LYP) =  -839.961766024     A.U. after   14 cycles
 SCF Done:  E(RB3LYP) =  -839.961976639     A.U. after   11 cycles
 SCF Done:  E(RB3LYP) =  -839.962031348     A.U. after   11 cycles
 SCF Done:  E(RB3LYP) =  -839.962043731     A.U. after   10 cycles
 SCF Done:  E(RB3LYP) =  -839.962004167     A.U. after   11 cycles
 SCF Done:  E(RB3LYP) =  -839.962020293     A.U. after   11 cycles
 SCF Done:  E(RB3LYP) =  -839.962041112     A.U. after   10 cycles
 SCF Done:  E(RB3LYP) =  -839.962044446     A.U. after    9 cycles
 SCF Done:  E(RB3LYP) =  -839.962020608     A.U. after   11 cycles
 SCF Done:  E(RB3LYP) =  -839.961991289     A.U. after   11 cycles
 SCF Done:  E(RB3LYP) =  -839.961813399     A.U. after   11 cycles
 SCF Done:  E(RB3LYP) =  -839.961831353     A.U. after   11 cycles
 SCF Done:  E(RB3LYP) =  -839.961888522     A.U. after   11 cycles
 SCF Done:  E(RB3LYP) =  -839.961962925     A.U. after   11 cycles
 SCF Done:  E(RB3LYP) =  -839.962011813     A.U. after   11 cycles
 SCF Done:  E(RB3LYP) =  -839.962038796     A.U. after   11 cycles
 SCF Done:  E(RB3LYP) =  -839.962046232     A.U. after   10 cycles
 SCF Done:  E(RB3LYP) =  -839.962047497     A.U. after    8 cycles
 SCF Done:  E(RB3LYP) =  -839.962047726     A.U. after    7 cycles
 Optimization completed.
    -- Stationary point found.
 Normal termination of Gaussian 09 at Mon Jan  9 07:45:07 2017.

 --------------------------------------------------------------------
 #N Geom=AllCheck Guess=TCheck SCRF=Check GenChk RB3LYP/6-31G(d) Freq
 --------------------------------------------------------------------

 Structure from the checkpoint file:  "/scratch/10448445.yak.local/Gau-10587.chk"
 ------------------------------------
 glo_2w_beta_ts_boat1_B3LYP_631Gd.log
 ------------------------------------
 Charge =  0 Multiplicity = 1

                         Standard orientation:
 ---------------------------------------------------------------------
 Center     Atomic      Atomic             Coordinates (Angstroms)
 Number     Number       Type             X           Y           Z
 ---------------------------------------------------------------------
      1          1           0        0.426461    1.580720    1.543217
      2          6           0        0.088481    1.124274    0.603970
      3          6           0        1.886662   -0.574723    0.257869
      4          6           0       -0.521631   -1.382567   -0.166046
      5          6           0        0.980740   -1.701123   -0.240961
      6          8           0       -0.618411   -0.077667    0.957071
      7          6           0        1.354657    0.778144   -0.200922
      8          1           0       -1.047727   -2.080527    0.502298
      9          1           0        1.200112   -1.848430   -1.307907
     10          1           0        1.117298    0.724578   -1.273990
     11          6           0       -0.801698    2.118894   -0.144276
     12          1           0       -1.674045    2.391146    0.464996
     13          1           0       -1.152395    1.654319   -1.075373
     14          8           0       -1.089809   -1.046090   -1.277408
     15          1           0        1.895477   -0.600627    1.358686
     16          8           0        0.022180    3.263124   -0.406697
     17          1           0       -0.460730    3.861979   -0.994640
     18          8           0        1.197645   -2.900184    0.492034
     19          1           0        2.148613   -3.086994    0.429106
     20          8           0        3.188900   -0.823728   -0.253054
     21          1           0        3.673645    0.014360   -0.154713
     22          8           0        2.378212    1.740004    0.028069
     23          1           0        2.006740    2.593863   -0.257227
     24          8           0       -3.010607    0.200251    1.210093
     25          1           0       -2.364177   -1.072846   -1.137942
     26          1           0       -1.785529    0.086248    1.151943
     27          1           0       -3.344252   -0.285543    1.981090
     28          8           0       -3.477257   -1.014899   -0.829854
     29          1           0       -3.356846   -0.357352    0.247864
     30          1           0       -3.932732   -0.478781   -1.497233
 ---------------------------------------------------------------------

 SCF Done:  E(RB3LYP) =  -839.962047726     A.U. after    1 cycles

 The electronic state is 1-A.
 Alpha  occ. eigenvalues --  -19.17295 -19.17054 -19.16225 -19.14701 -19.14399
 Alpha  occ. eigenvalues --  -19.13998 -19.13828 -19.11529 -10.28430 -10.24663
 Alpha  occ. eigenvalues --  -10.24412 -10.23573 -10.23035 -10.22876  -1.05474
 Alpha  occ. eigenvalues --   -1.04090  -1.03166  -1.01826  -1.01198  -1.00511
 Alpha  occ. eigenvalues --   -0.99867  -0.97163  -0.77926  -0.75419  -0.68885
 Alpha  occ. eigenvalues --   -0.63190  -0.61590  -0.56581  -0.55339  -0.54619
 Alpha  occ. eigenvalues --   -0.54102  -0.53268  -0.51721  -0.50106  -0.48502
 Alpha  occ. eigenvalues --   -0.46677  -0.45431  -0.44378  -0.43757  -0.42387
 Alpha  occ. eigenvalues --   -0.41776  -0.41704  -0.40745  -0.38354  -0.38075
 Alpha  occ. eigenvalues --   -0.35928  -0.34959  -0.34461  -0.33589  -0.32245
 Alpha  occ. eigenvalues --   -0.31062  -0.30360  -0.29361  -0.27290  -0.26770
 Alpha  occ. eigenvalues --   -0.26004  -0.25859  -0.24989
 Alpha virt. eigenvalues --    0.03252   0.05571   0.05776   0.08714   0.09404
 Alpha virt. eigenvalues --    0.11056   0.11534   0.12799   0.13917   0.14510
 Alpha virt. eigenvalues --    0.15127   0.16724   0.17358   0.18093   0.19364

 Mulliken charges:
               1
     1  H    0.156487
     2  C    0.152366
     3  C    0.118429
     4  C    0.302309
     5  C    0.132735
     6  O   -0.657321
     7  C    0.080256
     8  H    0.140543
     9  H    0.153844
    10  H    0.140904
    11  C   -0.089097
    12  H    0.153739
    13  H    0.153573
    14  O   -0.618291
    15  H    0.132785
    16  O   -0.639440
    17  H    0.408210
    18  O   -0.648683
    19  H    0.407219
    20  O   -0.664065
    21  H    0.415663
    22  O   -0.672643
    23  H    0.421838
    24  O   -0.844481
    25  H    0.463836
    26  H    0.481948
    27  H    0.407534
    28  O   -0.846366
    29  H    0.459106
    30  H    0.397065
 Sum of Mulliken charges =  -0.00000

 Dipole moment (field-independent basis, Debye):
    X=             -2.5323    Y=              3.5920    Z=              0.0340  Tot=              4.3950
 Quadrupole moment (field-independent basis, Debye-Ang):
   XX=            -78.7531   YY=            -81.0900   ZZ=            -80.2497
   XY=             -5.1508   XZ=             -0.4735   YZ=             -7.7609

  Exact polarizability: 110.825  -0.977 100.054   1.449  -1.267  81.983
 Approx polarizability: 140.342   1.982 130.534   2.917  -0.212 130.172

 ******    1 imaginary frequencies (negative Signs) ******

                      1                      2                      3
                      A                      A                      A
 Frequencies --  -1341.9224                33.5156                52.3828
 Red. masses --      1.1075                 5.5851                 5.3226
 Frc consts  --      1.1751                 0.0037                 0.0086
 IR Inten    --    205.0401                 0.6524                 0.4121

                      4                      5                      6
                      A                      A                      A
 Frequencies --     80.7520               100.5851               122.4969
 Red. masses --      6.1743                 6.2169                 4.4135
 Frc consts  --      0.0237                 0.0371                 0.0390
 IR Inten    --      1.0565                 0.4993                 2.7061

                      7                      8                      9
                      A                      A                      A
 Frequencies --    123.3787               149.3728               200.6402
 Red. masses --      5.9153                 5.8380                 2.9288
 Frc consts  --      0.0531                 0.0767                 0.0695
 IR Inten    --      2.5117                 1.2945                13.8606

                     10                     11                     12
                      A                      A                      A
 Frequencies --    219.0622               237.7569               241.5104
 Red. masses --      6.4287                 1.2288                 3.9566
 Frc consts  --      0.1818                 0.0409                 0.1360
 IR Inten    --     21.4710                77.9361                 9.2461

                     13                     14                     15
                      A                      A                      A
 Frequencies --    276.9506               296.6979               315.9770
 Red. masses --      4.2760                 5.3187                 3.8659
 Frc consts  --      0.1932                 0.2759                 0.2274
 IR Inten    --     11.3548                 6.3822                 1.8110

                     16                     17                     18
                      A                      A                      A
 Frequencies --    359.0219               372.3363               403.3913
 Red. masses --      2.3719                 4.1839                 1.5602
 Frc consts  --      0.1801                 0.3417                 0.1496
 IR Inten    --     19.7192                16.1439               138.9439

                     19                     20                     21
                      A                      A                      A
 Frequencies --    423.1448               431.4794               455.0626
 Red. masses --      1.3128                 1.2539                 2.6883
 Frc consts  --      0.1385                 0.1375                 0.3280
 IR Inten    --    243.1219                90.3227                90.1860

                     22                     23                     24
                      A                      A                      A
 Frequencies --    466.4672               488.4059               515.0647
 Red. masses --      6.1528                 3.0445                 2.7883
 Frc consts  --      0.7888                 0.4279                 0.4358
 IR Inten    --      8.7910                46.4328                20.6917

                     25                     26                     27
                      A                      A                      A
 Frequencies --    532.8686               542.2789               556.9039
 Red. masses --      1.3177                 1.8976                 2.6608
 Frc consts  --      0.2205                 0.3288                 0.4862
 IR Inten    --     68.4714               197.5740                51.5326

                     28                     29                     30
                      A                      A                      A
 Frequencies --    582.1928               602.4981               632.0964
 Red. masses --      5.2428                 2.8909                 2.7621
 Frc consts  --      1.0470                 0.6183                 0.6502
 IR Inten    --    109.3912                 1.8646                49.8581

                     31                     32                     33
                      A                      A                      A
 Frequencies --    638.1998               679.7311               738.1911
 Red. masses --      2.0976                 2.4974                 1.2010
 Frc consts  --      0.5034                 0.6799                 0.3856
 IR Inten    --     84.3848               218.8318                23.0104

                     34                     35                     36
                      A                      A                      A
 Frequencies --    782.9993               914.1690              1000.6925
 Red. masses --      3.6986                 1.9877                 3.2432
 Frc consts  --      1.3360                 0.9787                 1.9135
 IR Inten    --     68.6631                48.9647               502.1124

                     37                     38                     39
                      A                      A                      A
 Frequencies --   1013.2992              1025.0645              1057.5414
 Red. masses --      3.2869                 3.1508                 3.3498
 Frc consts  --      1.9884                 1.9506                 2.2073
 IR Inten    --    113.7016               583.3162               113.5960

                     40                     41                     42
                      A                      A                      A
 Frequencies --   1060.2766              1086.7022              1106.7220
 Red. masses --      5.6098                 2.0563                 2.7125
 Frc consts  --      3.7157                 1.4307                 1.9574
 IR Inten    --      9.4504               726.8779                 3.7933

                     43                     44                     45
                      A                      A                      A
 Frequencies --   1122.3101              1138.3050              1144.2784
 Red. masses --      2.3379                 4.6134                 2.6765
 Frc consts  --      1.7350                 3.5220                 2.0648
 IR Inten    --    795.2912                26.9986               150.9704

                     46                     47                     48
                      A                      A                      A
 Frequencies --   1146.9479              1221.8793              1241.2504
 Red. masses --      1.4699                 1.2391                 1.2550
 Frc consts  --      1.1393                 1.0900                 1.1392
 IR Inten    --   1240.4885               131.4518               122.7976

                     49                     50                     51
                      A                      A                      A
 Frequencies --   1253.2782              1263.1480              1275.2232
 Red. masses --      1.2286                 1.1513                 1.1610
 Frc consts  --      1.1370                 1.0823                 1.1124
 IR Inten    --     32.6032                20.1587               317.3336

                     52                     53                     54
                      A                      A                      A
 Frequencies --   1294.8147              1301.7300              1333.7078
 Red. masses --      1.1312                 1.1233                 1.2618
 Frc consts  --      1.1174                 1.1214                 1.3224
 IR Inten    --     44.3377              1725.0059                 4.5843

                     55                     56                     57
                      A                      A                      A
 Frequencies --   1345.6572              1363.3195              1383.1969
 Red. masses --      1.3695                 1.2402                 1.2478
 Frc consts  --      1.4611                 1.3581                 1.4065
 IR Inten    --     47.5243                30.9801               427.3604

                     58                     59                     60
                      A                      A                      A
 Frequencies --   1395.9135              1407.0119              1412.0318
 Red. masses --      1.2111                 1.2851                 1.2491
 Frc consts  --      1.3904                 1.4989                 1.4674
 IR Inten    --      3.1889               281.1651               253.0001

                     61                     62                     63
                      A                      A                      A
 Frequencies --   1424.7481              1447.1192              1457.1841
 Red. masses --      1.4670                 1.5568                 1.4333
 Frc consts  --      1.7545                 1.9209                 1.7932
 IR Inten    --     26.4869               151.0742                22.1793

                     64                     65                     66
                      A                      A                      A
 Frequencies --   1482.1005              1529.6699              1558.2977
 Red. masses --      1.5460                 1.9937                 1.0838
 Frc consts  --      2.0008                 2.7485                 1.5507
 IR Inten    --     13.6726               639.3313                16.3665

                     67                     68                     69
                      A                      A                      A
 Frequencies --   1590.2441              1641.5431              1683.6300
 Red. masses --      1.1455                 1.0607                 1.1237
 Frc consts  --      1.7068                 1.6840                 1.8766
 IR Inten    --    272.3249                72.0373              1261.9665

                     70                     71                     72
                      A                      A                      A
 Frequencies --   1694.2120              1842.5999              3007.9399
 Red. masses --      1.0673                 1.0456                 1.0819
 Frc consts  --      1.8050                 2.0915                 5.7674
 IR Inten    --    237.0655                84.2718                 8.8512

                     73                     74                     75
                      A                      A                      A
 Frequencies --   3023.1278              3029.9149              3034.6179
 Red. masses --      1.0836                 1.0879                 1.0557
 Frc consts  --      5.8348                 5.8844                 5.7280
 IR Inten    --     12.9225                50.1931                34.2789

                     76                     77                     78
                      A                      A                      A
 Frequencies --   3040.1375              3052.9027              3084.7045
 Red. masses --      1.0852                 1.0874                 1.1089
 Frc consts  --      5.9097                 5.9712                 6.2169
 IR Inten    --     57.4911                26.4877                50.2415

                     79                     80                     81
                      A                      A                      A
 Frequencies --   3698.5410              3708.2447              3737.1235
 Red. masses --      1.0654                 1.0653                 1.0659
 Frc consts  --      8.5865                 8.6307                 8.7705
 IR Inten    --    115.9333                37.4873                30.6754

                     82                     83                     84
                      A                      A                      A
 Frequencies --   3771.6838              3777.9958              3784.3563
 Red. masses --      1.0668                 1.0651                 1.0652
 Frc consts  --      8.9411                 8.9572                 8.9882
 IR Inten    --     29.4914                41.7751                29.9503

 - Thermochemistry -
 -------------------
 Temperature   298.150 Kelvin.  Pressure   1.00000 Atm.
 Atom     1 has atomic number  1 and mass   1.00783

 Molecular mass:   216.08452 amu.
 Principal axes and moments of inertia in atomic units:
                           1         2         3
     Eigenvalues --  2494.763133275.426094990.90440
           X            0.99994  -0.01100  -0.00064
           Y            0.01099   0.99992  -0.00629
           Z            0.00071   0.00628   0.99998
 This molecule is an asymmetric top.
 Rotational symmetry number  1.
 Warning -- assumption of classical behavior for rotation
           may cause significant error
 Rotational temperatures (Kelvin)      0.03472     0.02644     0.01735
 Rotational constants (GHZ):           0.72341     0.55099     0.36161
    1 imaginary frequencies ignored.
 Zero-point vibrational energy     628425.4 (Joules/Mol)
                                  150.19728 (Kcal/Mol)
 Warning -- explicit consideration of  28 degrees of freedom as
           vibrations may cause significant error
 Vibrational temperatures:     48.22    75.37   116.18   144.72   176.25
          (Kelvin)            177.51   214.91   288.68   315.18   342.08
                              347.48   398.47   426.88   454.62   516.55
                              535.71   580.39   608.81   620.80   654.73
                              671.14   702.71   741.06   766.68   780.22
                              801.26   837.64   866.86   909.44   918.23
                              977.98  1062.09  1126.56  1315.28  1439.77
                             1457.91  1474.84  1521.56  1525.50  1563.52
                             1592.32  1614.75  1637.76  1646.36  1650.20
                             1758.01  1785.88  1803.19  1817.39  1834.76
                             1862.95  1872.90  1918.91  1936.10  1961.51
                             1990.11  2008.41  2024.37  2031.60  2049.89
                             2082.08  2096.56  2132.41  2200.85  2242.04
                             2288.00  2361.81  2422.37  2437.59  2651.09
                             4327.75  4349.60  4359.37  4366.13  4374.07
                             4392.44  4438.20  5321.37  5335.33  5376.88
                             5426.60  5435.69  5444.84

 Zero-point correction=                           0.239355 (Hartree/Particle)
 Thermal correction to Energy=                    0.255346
 Thermal correction to Enthalpy=                  0.256290
 Thermal correction to Gibbs Free Energy=         0.196505
 Sum of electronic and zero-point Energies=           -839.722693
 Sum of electronic and thermal Energies=              -839.706702
 Sum of electronic and thermal Enthalpies=            -839.705758
 Sum of electronic and thermal Free Energies=         -839.765543

                     E (Thermal)             CV                S
                      KCal/Mol        Cal/Mol-Kelvin    Cal/Mol-Kelvin
 Total                  160.232             60.579            125.828
 Electronic               0.000              0.000              0.000
 Translational            0.889              2.981             42.015
 Rotational               0.889              2.981             32.078
 Vibrational            158.454             54.618             51.735
 Vibration     1          0.594              1.983              5.610
 Vibration     2          0.596              1.977              4.725
 Vibration     3          0.600              1.962              3.873
 Vibration     4          0.604              1.949              3.443
 Vibration     5          0.610              1.930              3.061
 Vibration     6          0.610              1.930              3.047
 Vibration     7          0.618              1.903              2.680
 Vibration     8          0.638              1.839              2.127
 Vibration     9          0.647              1.812              1.967
 Vibration    10          0.656              1.783              1.820
 Vibration    11          0.658              1.777              1.792
 Vibration    12          0.678              1.716              1.552
 Vibration    13          0.690              1.680              1.435
 Vibration    14          0.703              1.643              1.331
 Vibration    15          0.734              1.557              1.126
 Vibration    16          0.744              1.529              1.070
 Vibration    17          0.769              1.463              0.950
 Vibration    18          0.785              1.420              0.881
 Vibration    19          0.793              1.402              0.854
 Vibration    20          0.813              1.350              0.781
 Vibration    21          0.824              1.324              0.748
 Vibration    22          0.844              1.276              0.688
 Vibration    23          0.870              1.217              0.622
 Vibration    24          0.888              1.177              0.581
 Vibration    25          0.897              1.157              0.560
 Vibration    26          0.912              1.125              0.530
 Vibration    27          0.939              1.070              0.481
 Vibration    28          0.961              1.026              0.445

 Optimization completed.
    -- Stationary point found.
 Normal termination of Gaussian 09 at Mon Jan  9 07:57:07 2017.
