 Gaussian 09, Revision E.01,
 Gaussian 09:  ES64L-G09RevE.01 30-Nov-2015

 ----------------------------------------------------------------------
 # opt=(TS,CalcFC,NoEigenTest,MaxCycle=500,cartesian) Freq B3LYP 6-31G(
 d)
 ----------------------------------------------------------------------

 -------------------------
 boat1_Alpha_B3LYP_6-31G_d
 -------------------------
 Symbolic Z-matrix:
 Charge =  0 Multiplicity = 1

 SCF Done:  E(RB3LYP) =  -839.957380457     A.U. after   14 cycles
 SCF Done:  E(RB3LYP) =  -839.957684408     A.U. after   11 cycles
 SCF Done:  E(RB3LYP) =  -839.957800069     A.U. after   11 cycles
 SCF Done:  E(RB3LYP) =  -839.957859804     A.U. after   11 cycles
 SCF Done:  E(RB3LYP) =  -839.957862078     A.U. after   11 cycles
 SCF Done:  E(RB3LYP) =  -839.957790696     A.U. after   11 cycles
 SCF Done:  E(RB3LYP) =  -839.957786947     A.U. after   11 cycles
 SCF Done:  E(RB3LYP) =  -839.957808984     A.U. after   11 cycles
 SCF Done:  E(RB3LYP) =  -839.957870131     A.U. after   11 cycles
 SCF Done:  E(RB3LYP) =  -839.957865196     A.U. after   11 cycles
 SCF Done:  E(RB3LYP) =  -839.957873732     A.U. after   10 cycles
 SCF Done:  E(RB3LYP) =  -839.957877967     A.U. after   10 cycles
 SCF Done:  E(RB3LYP) =  -839.957878986     A.U. after    8 cycles
 SCF Done:  E(RB3LYP) =  -839.957878828     A.U. after    9 cycles
 SCF Done:  E(RB3LYP) =  -839.957879339     A.U. after    8 cycles
 SCF Done:  E(RB3LYP) =  -839.957879266     A.U. after    8 cycles
 SCF Done:  E(RB3LYP) =  -839.957879163     A.U. after    8 cycles
 SCF Done:  E(RB3LYP) =  -839.957879361     A.U. after    7 cycles
 SCF Done:  E(RB3LYP) =  -839.957879400     A.U. after    7 cycles
 Optimization completed.
    -- Stationary point found.
 Normal termination of Gaussian 09 at Wed Jan 11 12:58:36 2017.

 --------------------------------------------------------------------
 #N Geom=AllCheck Guess=TCheck SCRF=Check GenChk RB3LYP/6-31G(d) Freq
 --------------------------------------------------------------------

 Structure from the checkpoint file:  "/scratch/10450852.yak.local/Gau-8720.chk"
 -------------------------
 boat1_Alpha_B3LYP_6-31G_d
 -------------------------
 Charge =  0 Multiplicity = 1

                         Standard orientation:
 ---------------------------------------------------------------------
 Center     Atomic      Atomic             Coordinates (Angstroms)
 Number     Number       Type             X           Y           Z
 ---------------------------------------------------------------------
      1          1           0       -0.271159    1.301110    1.167529
      2          6           0       -0.087249    1.225523    0.084896
      3          6           0        0.667332   -1.236552    0.311723
      4          6           0       -1.561064   -0.954669   -0.909433
      5          6           0       -0.844797   -1.531258    0.307975
      6          8           0       -1.255157    0.826779   -0.616277
      7          6           0        1.029337    0.193775   -0.151879
      8          1           0       -0.950462   -2.623114    0.229053
      9          1           0        1.214265    0.145861   -1.236377
     10          6           0        0.270128    2.612351   -0.465356
     11          1           0       -0.582264    3.287271   -0.312990
     12          1           0        0.449208    2.522975   -1.545720
     13          1           0        1.013585   -1.318343    1.357815
     14          8           0        1.435903    3.111419    0.213683
     15          1           0        1.734181    3.915589   -0.237046
     16          8           0       -1.487354   -1.055499    1.498297
     17          1           0       -1.181591   -1.604765    2.235686
     18          8           0        1.258741   -2.222835   -0.507844
     19          1           0        2.236194   -2.083942   -0.499146
     20          8           0        2.232048    0.570041    0.538127
     21          1           0        2.331188    1.539880    0.434193
     22          1           0       -0.965384   -1.065572   -1.824329
     23          8           0       -2.829552   -1.044176   -1.027642
     24          8           0       -3.370561    0.701043    0.527919
     25          1           0       -3.364598   -0.220601   -0.131248
     26          1           0       -2.363126    0.986844    0.050906
     27          1           0       -3.086925    0.315138    1.379340
     28          8           0        3.909684   -1.450120   -0.225192
     29          1           0        3.534199   -0.589840    0.074648
     30          1           0        4.260544   -1.856719    0.581564
 ---------------------------------------------------------------------

 SCF Done:  E(RB3LYP) =  -839.957879400     A.U. after    1 cycles

 The electronic state is 1-A.
 Alpha  occ. eigenvalues --  -19.18332 -19.17515 -19.17099 -19.15892 -19.14594
 Alpha  occ. eigenvalues --  -19.14583 -19.12622 -19.11166 -10.28149 -10.24962
 Alpha  occ. eigenvalues --  -10.24532 -10.24492 -10.24232 -10.23872  -1.06218
 Alpha  occ. eigenvalues --   -1.05297  -1.03839  -1.03043  -1.00610  -1.00119
 Alpha  occ. eigenvalues --   -0.99734  -0.98625  -0.77443  -0.75635  -0.69764
 Alpha  occ. eigenvalues --   -0.63444  -0.61118  -0.57855  -0.55712  -0.54991
 Alpha  occ. eigenvalues --   -0.53204  -0.52625  -0.51916  -0.49911  -0.49747
 Alpha  occ. eigenvalues --   -0.47058  -0.46497  -0.45519  -0.44276  -0.42990
 Alpha  occ. eigenvalues --   -0.41346  -0.40880  -0.40435  -0.39672  -0.37867
 Alpha  occ. eigenvalues --   -0.37705  -0.36445  -0.35957  -0.34153  -0.32713
 Alpha  occ. eigenvalues --   -0.30355  -0.30163  -0.29170  -0.28669  -0.27387
 Alpha  occ. eigenvalues --   -0.26662  -0.25673  -0.23919
 Alpha virt. eigenvalues --    0.01602   0.04573   0.05713   0.07156   0.09914
 Alpha virt. eigenvalues --    0.10347   0.10793   0.12705   0.14440   0.14790
 Alpha virt. eigenvalues --    0.15726   0.15972   0.17067   0.18370   0.19746

 Mulliken charges:
               1
     1  H    0.132373
     2  C    0.129902
     3  C    0.119421
     4  C    0.311981
     5  C    0.078488
     6  O   -0.659135
     7  C    0.104881
     8  H    0.168122
     9  H    0.138013
    10  C   -0.059839
    11  H    0.151267
    12  H    0.145085
    13  H    0.107319
    14  O   -0.639306
    15  H    0.412205
    16  O   -0.659303
    17  H    0.407260
    18  O   -0.677837
    19  H    0.428828
    20  O   -0.694239
    21  H    0.434489
    22  H    0.157314
    23  O   -0.605362
    24  O   -0.803801
    25  H    0.463705
    26  H    0.468608
    27  H    0.424841
    28  O   -0.808373
    29  H    0.429744
    30  H    0.393350
 Sum of Mulliken charges =  -0.00000

 Dipole moment (field-independent basis, Debye):
    X=              2.8086    Y=              2.7984    Z=              3.5509  Tot=              5.3225
 Quadrupole moment (field-independent basis, Debye-Ang):
   XX=            -94.1010   YY=            -73.3829   ZZ=            -80.2333
   XY=              5.6186   XZ=             -2.7956   YZ=            -12.5084

  Exact polarizability: 111.194   2.312 104.565   0.558   0.392  81.325
 Approx polarizability: 146.677   4.369 140.701   2.062   5.822 125.514

 ******    1 imaginary frequencies (negative Signs) ******

                      1                      2                      3
                      A                      A                      A
 Frequencies --  -1221.0003                39.8230                68.6798
 Red. masses --      1.1830                 6.0068                 5.8141
 Frc consts  --      1.0392                 0.0056                 0.0162
 IR Inten    --    179.2490                 0.6082                 3.0194

                      4                      5                      6
                      A                      A                      A
 Frequencies --     75.3404               108.2523               136.5841
 Red. masses --      6.2222                 5.5869                 4.3045
 Frc consts  --      0.0208                 0.0386                 0.0473
 IR Inten    --      4.1397                 2.1663                 6.8030

                      7                      8                      9
                      A                      A                      A
 Frequencies --    172.7150               181.0752               191.5403
 Red. masses --      5.4969                 3.3025                 4.5420
 Frc consts  --      0.0966                 0.0638                 0.0982
 IR Inten    --      9.7482                 0.1299                 5.9071

                     10                     11                     12
                      A                      A                      A
 Frequencies --    203.3699               242.5866               263.3858
 Red. masses --      6.1679                 3.4152                 1.3401
 Frc consts  --      0.1503                 0.1184                 0.0548
 IR Inten    --      8.4214                37.3907                70.5958

                     13                     14                     15
                      A                      A                      A
 Frequencies --    284.3926               295.2589               301.8355
 Red. masses --      5.3027                 4.4937                 1.2488
 Frc consts  --      0.2527                 0.2308                 0.0670
 IR Inten    --     20.1914                18.7072                58.3914

                     16                     17                     18
                      A                      A                      A
 Frequencies --    315.0585               345.6976               353.7877
 Red. masses --      1.1695                 3.3298                 4.5431
 Frc consts  --      0.0684                 0.2345                 0.3350
 IR Inten    --    120.6431                48.2484                31.1449

                     19                     20                     21
                      A                      A                      A
 Frequencies --    369.9438               396.4040               414.2664
 Red. masses --      1.2249                 4.7141                 5.2057
 Frc consts  --      0.0988                 0.4364                 0.5264
 IR Inten    --     73.5384                 8.2946                11.1623

                     22                     23                     24
                      A                      A                      A
 Frequencies --    449.6403               467.4775               506.7716
 Red. masses --      5.1367                 5.5261                 4.1672
 Frc consts  --      0.6119                 0.7115                 0.6305
 IR Inten    --     10.2374                32.8111                 8.6961

                     25                     26                     27
                      A                      A                      A
 Frequencies --    509.0201               551.2152               576.9934
 Red. masses --      3.4446                 2.1968                 2.2473
 Frc consts  --      0.5258                 0.3933                 0.4408
 IR Inten    --     88.4072                25.2592                79.4660

                     28                     29                     30
                      A                      A                      A
 Frequencies --    596.1197               642.4424               666.8342
 Red. masses --      3.0598                 1.2429                 3.4018
 Frc consts  --      0.6406                 0.3022                 0.8912
 IR Inten    --     55.2474                78.2152                28.3810

                     31                     32                     33
                      A                      A                      A
 Frequencies --    691.8695               708.8563               759.1545
 Red. masses --      1.1378                 4.7189                 4.1512
 Frc consts  --      0.3209                 1.3970                 1.4095
 IR Inten    --     45.4686                18.3420               120.2945

                     34                     35                     36
                      A                      A                      A
 Frequencies --    796.9624               851.1529               869.5051
 Red. masses --      1.0745                 1.9313                 1.4141
 Frc consts  --      0.4021                 0.8244                 0.6299
 IR Inten    --    235.1840                99.9790               110.8604

                     37                     38                     39
                      A                      A                      A
 Frequencies --    915.2519               986.2968              1038.5024
 Red. masses --      1.8278                 2.3903                 2.7062
 Frc consts  --      0.9021                 1.3700                 1.7196
 IR Inten    --      0.6011                55.2554                38.9357

                     40                     41                     42
                      A                      A                      A
 Frequencies --   1048.2966              1066.0138              1080.1562
 Red. masses --      3.8781                 5.2947                 3.8782
 Frc consts  --      2.5110                 3.5450                 2.6659
 IR Inten    --    120.1590               398.2573                38.1649

                     43                     44                     45
                      A                      A                      A
 Frequencies --   1110.9836              1123.6832              1131.0291
 Red. masses --      4.4074                 3.3254                 2.4579
 Frc consts  --      3.2052                 2.4739                 1.8525
 IR Inten    --     56.5623                 8.2651                21.3009

                     46                     47                     48
                      A                      A                      A
 Frequencies --   1143.3068              1158.5987              1240.3153
 Red. masses --      1.8467                 1.9940                 1.1831
 Frc consts  --      1.4223                 1.5770                 1.0724
 IR Inten    --     11.7291                34.8041                12.1218

                     49                     50                     51
                      A                      A                      A
 Frequencies --   1252.2000              1259.1911              1282.4935
 Red. masses --      1.1483                 1.1701                 1.3945
 Frc consts  --      1.0609                 1.0931                 1.3514
 IR Inten    --     16.9795                20.3212                 5.4805

                     52                     53                     54
                      A                      A                      A
 Frequencies --   1306.4834              1322.4757              1329.0421
 Red. masses --      1.2130                 1.1182                 1.1797
 Frc consts  --      1.2198                 1.1522                 1.2277
 IR Inten    --      3.7901                37.2874               617.8947

                     55                     56                     57
                      A                      A                      A
 Frequencies --   1355.1946              1388.0297              1394.0310
 Red. masses --      1.2752                 1.2468                 1.4072
 Frc consts  --      1.3799                 1.4153                 1.6112
 IR Inten    --    190.9742               154.5407                16.6715

                     58                     59                     60
                      A                      A                      A
 Frequencies --   1407.9944              1423.7758              1434.0748
 Red. masses --      1.3102                 1.3419                 1.3193
 Frc consts  --      1.5304                 1.6027                 1.5985
 IR Inten    --    782.2661                65.9116               213.8736

                     61                     62                     63
                      A                      A                      A
 Frequencies --   1452.1087              1466.4575              1489.7002
 Red. masses --      1.4301                 1.2731                 1.3781
 Frc consts  --      1.7768                 1.6131                 1.8019
 IR Inten    --     85.6656              1103.9418               157.5425

                     64                     65                     66
                      A                      A                      A
 Frequencies --   1515.8640              1546.2655              1606.9274
 Red. masses --      1.3120                 1.0931                 1.9272
 Frc consts  --      1.7762                 1.5398                 2.9321
 IR Inten    --     84.3580                 5.6296               253.1894

                     67                     68                     69
                      A                      A                      A
 Frequencies --   1640.3112              1730.1791              1744.4283
 Red. masses --      1.0979                 1.0740                 1.1860
 Frc consts  --      1.7405                 1.8943                 2.1264
 IR Inten    --     13.0756                46.4948               343.8647

                     70                     71                     72
                      A                      A                      A
 Frequencies --   2034.1489              2958.8064              3005.0051
 Red. masses --      1.0177                 1.0829                 1.0824
 Frc consts  --      2.4810                 5.5856                 5.7588
 IR Inten    --    445.8558                50.4314                 4.8170

                     73                     74                     75
                      A                      A                      A
 Frequencies --   3020.6738              3032.4333              3036.3390
 Red. masses --      1.0828                 1.0587                 1.0837
 Frc consts  --      5.8211                 5.7360                 5.8865
 IR Inten    --     31.7000                61.3850                23.3169

                     76                     77                     78
                      A                      A                      A
 Frequencies --   3075.5465              3078.2505              3419.3699
 Red. masses --      1.0906                 1.1088                 1.0665
 Frc consts  --      6.0779                 6.1903                 7.3472
 IR Inten    --     18.5410                72.1969               266.1851

                     79                     80                     81
                      A                      A                      A
 Frequencies --   3507.2032              3567.1125              3697.5445
 Red. masses --      1.0611                 1.0652                 1.0624
 Frc consts  --      7.6902                 7.9854                 8.5579
 IR Inten    --    902.2672               217.0542                67.6298

                     82                     83                     84
                      A                      A                      A
 Frequencies --   3760.9467              3763.9521              3796.3526
 Red. masses --      1.0666                 1.0667                 1.0691
 Frc consts  --      8.8887                 8.9037                 9.0785
 IR Inten    --     27.7535                30.0240                61.0693

 - Thermochemistry -
 -------------------
 Temperature   298.150 Kelvin.  Pressure   1.00000 Atm.
 Atom     1 has atomic number  1 and mass   1.00783

 Molecular mass:   216.08452 amu.
 Principal axes and moments of inertia in atomic units:
                           1         2         3
     Eigenvalues --  2322.646223550.758045107.97772
           X            0.99993  -0.01077  -0.00467
           Y            0.01069   0.99980  -0.01685
           Z            0.00485   0.01680   0.99985
 This molecule is an asymmetric top.
 Rotational symmetry number  1.
 Warning -- assumption of classical behavior for rotation
           may cause significant error
 Rotational temperatures (Kelvin)      0.03729     0.02439     0.01696
 Rotational constants (GHZ):           0.77702     0.50827     0.35332
    1 imaginary frequencies ignored.
 Zero-point vibrational energy     637294.7 (Joules/Mol)
                                  152.31710 (Kcal/Mol)
 Warning -- explicit consideration of  27 degrees of freedom as
           vibrations may cause significant error
 Vibrational temperatures:     57.30    98.81   108.40   155.75   196.51
          (Kelvin)            248.50   260.53   275.58   292.60   349.03
                              378.95   409.18   424.81   434.27   453.30
                              497.38   509.02   532.27   570.34   596.04
                              646.93   672.59   729.13   732.37   793.07
                              830.16   857.68   924.33   959.42   995.44
                             1019.88  1092.25  1146.65  1224.62  1251.02
                             1316.84  1419.06  1494.17  1508.26  1533.75
                             1554.10  1598.46  1616.73  1627.30  1644.96
                             1666.96  1784.53  1801.63  1811.69  1845.22
                             1879.74  1902.75  1912.19  1949.82  1997.06
                             2005.70  2025.79  2048.49  2063.31  2089.26
                             2109.90  2143.34  2180.99  2224.73  2312.01
                             2360.04  2489.34  2509.84  2926.68  4257.06
                             4323.53  4346.07  4362.99  4368.61  4425.02
                             4428.91  4919.70  5046.08  5132.27  5319.94
                             5411.16  5415.48  5462.10

 Zero-point correction=                           0.242733 (Hartree/Particle)
 Thermal correction to Energy=                    0.258775
 Thermal correction to Enthalpy=                  0.259720
 Thermal correction to Gibbs Free Energy=         0.200410
 Sum of electronic and zero-point Energies=           -839.715147
 Sum of electronic and thermal Energies=              -839.699104
 Sum of electronic and thermal Enthalpies=            -839.698160
 Sum of electronic and thermal Free Energies=         -839.757470

                     E (Thermal)             CV                S
                      KCal/Mol        Cal/Mol-Kelvin    Cal/Mol-Kelvin
 Total                  162.384             61.071            124.828
 Electronic               0.000              0.000              0.000
 Translational            0.889              2.981             42.015
 Rotational               0.889              2.981             32.110
 Vibrational            160.607             55.109             50.703
 Vibration     1          0.594              1.981              5.268
 Vibration     2          0.598              1.969              4.191
 Vibration     3          0.599              1.965              4.009
 Vibration     4          0.606              1.943              3.300
 Vibration     5          0.614              1.917              2.851
 Vibration     6          0.626              1.876              2.406
 Vibration     7          0.630              1.865              2.317
 Vibration     8          0.634              1.852              2.213
 Vibration     9          0.639              1.835              2.102
 Vibration    10          0.659              1.775              1.784
 Vibration    11          0.670              1.740              1.639
 Vibration    12          0.683              1.703              1.507
 Vibration    13          0.689              1.683              1.444
 Vibration    14          0.694              1.670              1.407
 Vibration    15          0.702              1.645              1.336
 Vibration    16          0.724              1.584              1.186
 Vibration    17          0.730              1.567              1.149
 Vibration    18          0.742              1.534              1.080
 Vibration    19          0.763              1.478              0.976
 Vibration    20          0.778              1.439              0.912
 Vibration    21          0.809              1.362              0.797
 Vibration    22          0.825              1.322              0.745
 Vibration    23          0.862              1.235              0.641
 Vibration    24          0.864              1.230              0.636
 Vibration    25          0.907              1.137              0.542
 Vibration    26          0.933              1.081              0.491
 Vibration    27          0.954              1.040              0.456

 Optimization completed.
    -- Stationary point found.
 Normal termination of Gaussian 09 at Wed Jan 11 13:17:54 2017.
