 Gaussian 09, Revision E.01,
 Gaussian 09:  ES64L-G09RevE.01 30-Nov-2015

 -------------------------
 # b3lyp/6-31g(d) opt freq
 -------------------------

 -----------------------------------
 glo_2w_alpha_ircf_boat2_B3LYP_631Gd
 -----------------------------------
 Symbolic Z-matrix:
 Charge =  0 Multiplicity = 1

 SCF Done:  E(RB3LYP) =  -839.992371530     A.U. after   14 cycles
 SCF Done:  E(RB3LYP) =  -839.991396302     A.U. after   13 cycles
 SCF Done:  E(RB3LYP) =  -839.995473208     A.U. after   11 cycles
 SCF Done:  E(RB3LYP) =  -839.997975335     A.U. after   12 cycles
 SCF Done:  E(RB3LYP) =  -840.001402610     A.U. after   12 cycles
 SCF Done:  E(RB3LYP) =  -840.003264043     A.U. after   13 cycles
 SCF Done:  E(RB3LYP) =  -840.004903355     A.U. after   12 cycles
 SCF Done:  E(RB3LYP) =  -840.005186782     A.U. after   13 cycles
 SCF Done:  E(RB3LYP) =  -840.006338688     A.U. after   13 cycles
 SCF Done:  E(RB3LYP) =  -840.006239599     A.U. after   12 cycles
 SCF Done:  E(RB3LYP) =  -840.006939719     A.U. after    7 cycles
 SCF Done:  E(RB3LYP) =  -840.006939883     A.U. after    7 cycles
 SCF Done:  E(RB3LYP) =  -840.006940071     A.U. after    7 cycles
 SCF Done:  E(RB3LYP) =  -840.006940292     A.U. after    7 cycles
 SCF Done:  E(RB3LYP) =  -840.006940541     A.U. after    7 cycles
 SCF Done:  E(RB3LYP) =  -840.006940852     A.U. after    7 cycles
 SCF Done:  E(RB3LYP) =  -840.006941146     A.U. after    7 cycles
 SCF Done:  E(RB3LYP) =  -840.006941350     A.U. after    7 cycles
 SCF Done:  E(RB3LYP) =  -840.006941503     A.U. after    6 cycles
 Optimization completed.
    -- Stationary point found.
 Normal termination of Gaussian 09 at Sun Jan 15 22:08:14 2017.

 --------------------------------------------------------------------
 #N Geom=AllCheck Guess=TCheck SCRF=Check GenChk RB3LYP/6-31G(d) Freq
 --------------------------------------------------------------------

 Structure from the checkpoint file:  "/scratch/10464873.yak.local/Gau-12351.chk"
 -----------------------------------
 glo_2w_alpha_ircf_boat2_B3LYP_631Gd
 -----------------------------------
 Charge =  0 Multiplicity = 1

                         Standard orientation:
 ---------------------------------------------------------------------
 Center     Atomic      Atomic             Coordinates (Angstroms)
 Number     Number       Type             X           Y           Z
 ---------------------------------------------------------------------
      1          6           0       -0.549989   -1.904972    0.320634
      2          8           0        0.504802    0.423168    1.157958
      3          1           0        3.168517    0.893102    0.379776
      4          1           0        3.465860   -2.897843   -0.113781
      5          8           0        3.040401   -2.166233   -0.585439
      6          1           0        3.214208   -0.670656    0.392028
      7          8           0        3.124334    0.119445    0.977281
      8          1           0        1.500840    0.276595    1.173182
      9          6           0       -1.411622    1.273448    0.010435
     10          6           0        0.115003    1.058223   -0.055235
     11          1           0       -1.619594    2.131325    0.663007
     12          1           0        0.322228    0.395741   -0.914116
     13          8           0       -1.920663    1.609041   -1.271054
     14          1           0       -1.992695    0.762387   -1.751967
     15          6           0        0.843979    2.381143   -0.299982
     16          8           0        2.217106    2.212278   -0.691575
     17          1           0        0.868547    2.958944    0.628665
     18          1           0        0.300153    2.954824   -1.060370
     19          1           0        2.223794    1.903570   -1.611334
     20          1           0       -0.329384   -2.049436    1.385806
     21          8           0        0.198266   -2.308826   -0.562235
     22          1           0        2.082913   -2.369648   -0.557556
     23          6           0       -1.883777   -1.291287   -0.044495
     24          1           0       -2.637026   -1.995793    0.352813
     25          6           0       -2.179187    0.081461    0.634464
     26          1           0       -3.240933    0.287688    0.461045
     27          8           0       -1.996265   -1.188681   -1.455220
     28          1           0       -1.237670   -1.691086   -1.816241
     29          8           0       -1.999299   -0.026495    2.032130
     30          1           0       -1.045668    0.132615    2.179352
 ---------------------------------------------------------------------

 SCF Done:  E(RB3LYP) =  -840.006941503     A.U. after    1 cycles

 The electronic state is 1-A.
 Alpha  occ. eigenvalues --  -19.19423 -19.17742 -19.17315 -19.16240 -19.14904
 Alpha  occ. eigenvalues --  -19.14378 -19.14108 -19.13366 -10.31205 -10.26499
 Alpha  occ. eigenvalues --  -10.25028 -10.24358 -10.24155 -10.24046  -1.09371
 Alpha  occ. eigenvalues --   -1.04846  -1.04315  -1.03015  -1.02085  -1.01445
 Alpha  occ. eigenvalues --   -1.01142  -0.98724  -0.78157  -0.75893  -0.70352
 Alpha  occ. eigenvalues --   -0.65553  -0.61299  -0.58673  -0.55402  -0.54886
 Alpha  occ. eigenvalues --   -0.54392  -0.52625  -0.52270  -0.50953  -0.50205
 Alpha  occ. eigenvalues --   -0.47342  -0.46388  -0.46140  -0.45481  -0.43241
 Alpha  occ. eigenvalues --   -0.41924  -0.40885  -0.40867  -0.40086  -0.38973
 Alpha  occ. eigenvalues --   -0.38219  -0.37128  -0.35318  -0.34013  -0.32621
 Alpha  occ. eigenvalues --   -0.32097  -0.31736  -0.31344  -0.29520  -0.29433
 Alpha  occ. eigenvalues --   -0.27609  -0.26973  -0.25382
 Alpha virt. eigenvalues --   -0.05592   0.04482   0.05540   0.06832   0.09623
 Alpha virt. eigenvalues --    0.10781   0.11869   0.12798   0.13626   0.14559
 Alpha virt. eigenvalues --    0.14682   0.15737   0.16056   0.17130   0.18497

 Mulliken charges:
               1
     1  C    0.265798
     2  O   -0.715475
     3  H    0.418576
     4  H    0.401796
     5  O   -0.808434
     6  H    0.424015
     7  O   -0.848134
     8  H    0.442105
     9  C    0.085927
    10  C    0.123871
    11  H    0.150788
    12  H    0.099444
    13  O   -0.652273
    14  H    0.418897
    15  C   -0.074949
    16  O   -0.627073
    17  H    0.166011
    18  H    0.163499
    19  H    0.402198
    20  H    0.164188
    21  O   -0.459673
    22  H    0.431777
    23  C    0.058021
    24  H    0.170537
    25  C    0.094694
    26  H    0.161238
    27  O   -0.654903
    28  H    0.418021
    29  O   -0.651349
    30  H    0.430859
 Sum of Mulliken charges =  -0.00000

 Dipole moment (field-independent basis, Debye):
    X=              0.8590    Y=             -2.7679    Z=             -1.4470  Tot=              3.2393
 Quadrupole moment (field-independent basis, Debye-Ang):
   XX=            -92.5948   YY=            -76.1780   ZZ=            -87.2780
   XY=             -1.2201   XZ=             -3.0925   YZ=             -3.5086

  Exact polarizability: 104.473  -3.894  95.465  -2.018   0.346  87.082
 Approx polarizability: 138.116  -9.322 125.072  -4.287   4.262 138.307

                      1                      2                      3
                      A                      A                      A
 Frequencies --     32.7808                55.7009                70.6819
 Red. masses --      5.2843                 6.8352                 5.9028
 Frc consts  --      0.0033                 0.0125                 0.0174
 IR Inten    --      3.2938                 3.0558                 2.0483

                      4                      5                      6
                      A                      A                      A
 Frequencies --     82.5406                97.3864               118.6459
 Red. masses --      6.9511                 7.4254                 4.9493
 Frc consts  --      0.0279                 0.0415                 0.0410
 IR Inten    --      1.5590                 6.9721                 5.7042

                      7                      8                      9
                      A                      A                      A
 Frequencies --    156.1957               177.0131               196.8965
 Red. masses --      5.1277                 6.0193                 3.8833
 Frc consts  --      0.0737                 0.1111                 0.0887
 IR Inten    --      0.3618                 9.4784                 9.2415

                     10                     11                     12
                      A                      A                      A
 Frequencies --    201.3535               220.1900               234.1771
 Red. masses --      4.0092                 6.8957                 4.1404
 Frc consts  --      0.0958                 0.1970                 0.1338
 IR Inten    --      4.8672                 5.4058                30.5490

                     13                     14                     15
                      A                      A                      A
 Frequencies --    254.9294               270.1974               274.8568
 Red. masses --      2.3493                 1.9064                 5.8522
 Frc consts  --      0.0900                 0.0820                 0.2605
 IR Inten    --     16.7770               103.3415                 6.6693

                     16                     17                     18
                      A                      A                      A
 Frequencies --    296.8487               336.0373               342.4020
 Red. masses --      4.0524                 1.4836                 2.8736
 Frc consts  --      0.2104                 0.0987                 0.1985
 IR Inten    --     13.2741                45.3499                26.5362

                     19                     20                     21
                      A                      A                      A
 Frequencies --    358.8374               380.7631               396.9407
 Red. masses --      3.2117                 1.4018                 3.6810
 Frc consts  --      0.2437                 0.1197                 0.3417
 IR Inten    --     54.7600                63.2383                39.7264

                     22                     23                     24
                      A                      A                      A
 Frequencies --    409.3175               459.8701               486.8067
 Red. masses --      3.8464                 2.7046                 1.4317
 Frc consts  --      0.3797                 0.3370                 0.1999
 IR Inten    --     24.0090                 7.2859                23.8434

                     25                     26                     27
                      A                      A                      A
 Frequencies --    499.1533               523.7773               563.4572
 Red. masses --      3.3455                 3.2216                 1.0566
 Frc consts  --      0.4911                 0.5207                 0.1976
 IR Inten    --      8.8198                19.5320               114.4615

                     28                     29                     30
                      A                      A                      A
 Frequencies --    580.1110               621.9348               648.3739
 Red. masses --      3.8782                 1.0847                 1.1053
 Frc consts  --      0.7690                 0.2472                 0.2738
 IR Inten    --     13.6791               113.6639               172.7183

                     31                     32                     33
                      A                      A                      A
 Frequencies --    669.1091               694.3650               703.7698
 Red. masses --      1.1443                 1.1179                 3.2091
 Frc consts  --      0.3018                 0.3176                 0.9365
 IR Inten    --     84.9050               106.6600                35.7120

                     34                     35                     36
                      A                      A                      A
 Frequencies --    726.6496               816.4714               834.8299
 Red. masses --      2.4878                 3.6328                 1.0952
 Frc consts  --      0.7740                 1.4268                 0.4497
 IR Inten    --      3.1274                17.4681               293.0476

                     37                     38                     39
                      A                      A                      A
 Frequencies --    889.5763               902.8320               993.2548
 Red. masses --      2.2938                 2.6406                 1.9274
 Frc consts  --      1.0695                 1.2681                 1.1203
 IR Inten    --     14.6932                35.7037                26.9578

                     40                     41                     42
                      A                      A                      A
 Frequencies --   1027.1186              1056.8556              1074.8938
 Red. masses --      3.3891                 2.4128                 1.5123
 Frc consts  --      2.1066                 1.5878                 1.0295
 IR Inten    --     79.4383                33.8975                31.1378

                     43                     44                     45
                      A                      A                      A
 Frequencies --   1092.7689              1097.7331              1104.7149
 Red. masses --      1.6007                 4.2046                 4.8379
 Frc consts  --      1.1262                 2.9852                 3.4786
 IR Inten    --     71.0799                51.3447               184.4452

                     46                     47                     48
                      A                      A                      A
 Frequencies --   1136.8344              1139.9842              1157.9363
 Red. masses --      3.5001                 3.2392                 3.0530
 Frc consts  --      2.6652                 2.4802                 2.4118
 IR Inten    --     47.6077                 7.1549                 6.8094

                     49                     50                     51
                      A                      A                      A
 Frequencies --   1210.7516              1249.8316              1257.7613
 Red. masses --      1.2521                 1.2413                 1.1752
 Frc consts  --      1.0814                 1.1424                 1.0953
 IR Inten    --     14.8374                23.6761                13.9599

                     52                     53                     54
                      A                      A                      A
 Frequencies --   1304.1151              1305.9921              1349.6257
 Red. masses --      1.1867                 1.2883                 1.3628
 Frc consts  --      1.1891                 1.2946                 1.4626
 IR Inten    --      2.8832                 8.4312                 4.0671

                     55                     56                     57
                      A                      A                      A
 Frequencies --   1368.2499              1386.5680              1389.7319
 Red. masses --      1.2978                 1.2534                 1.2315
 Frc consts  --      1.4314                 1.4197                 1.4014
 IR Inten    --     55.5424                25.0912                35.4558

                     58                     59                     60
                      A                      A                      A
 Frequencies --   1403.5968              1424.4079              1425.7853
 Red. masses --      1.2708                 1.3161                 1.2691
 Frc consts  --      1.4750                 1.5732                 1.5200
 IR Inten    --     26.5141                12.5578                40.6031

                     61                     62                     63
                      A                      A                      A
 Frequencies --   1456.8537              1472.5613              1479.4926
 Red. masses --      1.4270                 1.2076                 1.2389
 Frc consts  --      1.7844                 1.5428                 1.5978
 IR Inten    --     17.4088               120.2861                42.1386

                     64                     65                     66
                      A                      A                      A
 Frequencies --   1518.7760              1541.9402              1719.8580
 Red. masses --      1.0917                 1.2062                 1.0870
 Frc consts  --      1.4837                 1.6896                 1.8944
 IR Inten    --      2.6507                84.8337                71.4752

                     67                     68                     69
                      A                      A                      A
 Frequencies --   1749.3747              1756.7986              2969.5551
 Red. masses --      1.0783                 7.8631                 1.0816
 Frc consts  --      1.9442                14.2983                 5.6195
 IR Inten    --     54.2715               166.8079                46.4217

                     70                     71                     72
                      A                      A                      A
 Frequencies --   2972.9904              3056.0090              3063.2627
 Red. masses --      1.0812                 1.0824                 1.0643
 Frc consts  --      5.6306                 5.9560                 5.8844
 IR Inten    --     25.3573                22.4463                26.5360

                     73                     74                     75
                      A                      A                      A
 Frequencies --   3074.8937              3083.1181              3097.9678
 Red. masses --      1.0737                 1.0856                 1.0905
 Frc consts  --      5.9813                 6.0802                 6.1663
 IR Inten    --   1206.5906                28.7249                46.4574

                     76                     77                     78
                      A                      A                      A
 Frequencies --   3129.4974              3464.8880              3598.6699
 Red. masses --      1.1057                 1.0591                 1.0624
 Frc consts  --      6.3800                 7.4918                 8.1060
 IR Inten    --     17.7739               419.0164               236.3955

                     79                     80                     81
                      A                      A                      A
 Frequencies --   3607.4102              3615.3779              3638.7491
 Red. masses --      1.0567                 1.0651                 1.0706
 Frc consts  --      8.1022                 8.2026                 8.3515
 IR Inten    --    171.7556               169.4109               371.9441

                     82                     83                     84
                      A                      A                      A
 Frequencies --   3644.5464              3743.3630              3807.6296
 Red. masses --      1.0654                 1.0663                 1.0725
 Frc consts  --      8.3376                 8.8035                 9.1615
 IR Inten    --    137.6560                22.2606               105.8244

 - Thermochemistry -
 -------------------
 Temperature   298.150 Kelvin.  Pressure   1.00000 Atm.
 Atom     1 has atomic number  6 and mass  12.00000

 Molecular mass:   216.08452 amu.
 Principal axes and moments of inertia in atomic units:
                           1         2         3
     Eigenvalues --  2615.129663538.088894662.05692
           X            0.99987  -0.01568  -0.00249
           Y            0.01566   0.99984  -0.00822
           Z            0.00262   0.00818   0.99996
 This molecule is an asymmetric top.
 Rotational symmetry number  1.
 Warning -- assumption of classical behavior for rotation
           may cause significant error
 Rotational temperatures (Kelvin)      0.03312     0.02448     0.01858
 Rotational constants (GHZ):           0.69012     0.51009     0.38711
 Zero-point vibrational energy     650815.6 (Joules/Mol)
                                  155.54867 (Kcal/Mol)
 Warning -- explicit consideration of  28 degrees of freedom as
           vibrations may cause significant error
 Vibrational temperatures:     47.16    80.14   101.70   118.76   140.12
          (Kelvin)            170.70   224.73   254.68   283.29   289.70
                              316.80   336.93   366.79   388.75   395.46
                              427.10   483.48   492.64   516.29   547.83
                              571.11   588.92   661.65   700.41   718.17
                              753.60   810.69   834.65   894.82   932.86
                              962.70   999.04  1012.57  1045.49  1174.72
                             1201.13  1279.90  1298.97  1429.07  1477.79
                             1520.58  1546.53  1572.25  1579.39  1589.44
                             1635.65  1640.18  1666.01  1742.00  1798.23
                             1809.64  1876.33  1879.03  1941.81  1968.60
                             1994.96  1999.51  2019.46  2049.40  2051.38
                             2096.08  2118.68  2128.66  2185.18  2218.51
                             2474.49  2516.96  2527.64  4272.52  4277.46
                             4396.91  4407.35  4424.08  4435.91  4457.28
                             4502.64  4985.19  5177.68  5190.25  5201.72
                             5235.34  5243.68  5385.86  5478.32

 Zero-point correction=                           0.247883 (Hartree/Particle)
 Thermal correction to Energy=                    0.265337
 Thermal correction to Enthalpy=                  0.266281
 Thermal correction to Gibbs Free Energy=         0.203439
 Sum of electronic and zero-point Energies=           -839.759059
 Sum of electronic and thermal Energies=              -839.741604
 Sum of electronic and thermal Enthalpies=            -839.740660
 Sum of electronic and thermal Free Energies=         -839.803503

                     E (Thermal)             CV                S
                      KCal/Mol        Cal/Mol-Kelvin    Cal/Mol-Kelvin
 Total                  166.502             64.589            132.263
 Electronic               0.000              0.000              0.000
 Translational            0.889              2.981             42.015
 Rotational               0.889              2.981             32.134
 Vibrational            164.724             58.627             58.115
 Vibration     1          0.594              1.983              5.654
 Vibration     2          0.596              1.975              4.604
 Vibration     3          0.598              1.968              4.134
 Vibration     4          0.600              1.961              3.830
 Vibration     5          0.603              1.951              3.506
 Vibration     6          0.609              1.934              3.122
 Vibration     7          0.620              1.896              2.595
 Vibration     8          0.628              1.871              2.360
 Vibration     9          0.636              1.844              2.162
 Vibration    10          0.638              1.838              2.121
 Vibration    11          0.647              1.810              1.958
 Vibration    12          0.654              1.789              1.847
 Vibration    13          0.665              1.754              1.696
 Vibration    14          0.674              1.728              1.595
 Vibration    15          0.677              1.720              1.565
 Vibration    16          0.690              1.680              1.435
 Vibration    17          0.717              1.604              1.231
 Vibration    18          0.722              1.591              1.201
 Vibration    19          0.734              1.557              1.127
 Vibration    20          0.750              1.511              1.036
 Vibration    21          0.763              1.477              0.974
 Vibration    22          0.774              1.450              0.929
 Vibration    23          0.818              1.339              0.766
 Vibration    24          0.843              1.279              0.692
 Vibration    25          0.855              1.252              0.660
 Vibration    26          0.879              1.197              0.601
 Vibration    27          0.919              1.110              0.517
 Vibration    28          0.937              1.074              0.485

 Normal termination of Gaussian 09 at Sun Jan 15 22:42:09 2017.
