 Gaussian 09, Revision E.01,
 Gaussian 09:  ES64L-G09RevE.01 30-Nov-2015

 -------------------------
 # b3lyp/6-31g(d) opt freq
 -------------------------

 ----------------------------------
 glo_1w_beta_ircf_boat2_B3LYP_631Gd
 ----------------------------------
 Symbolic Z-matrix:
 Charge =  0 Multiplicity = 1

 SCF Done:  E(RB3LYP) =  -839.967306196     A.U. after   14 cycles
 SCF Done:  E(RB3LYP) =  -839.867396777     A.U. after   14 cycles
 SCF Done:  E(RB3LYP) =  -839.974621800     A.U. after   11 cycles
 SCF Done:  E(RB3LYP) =  -839.980117437     A.U. after   11 cycles
 SCF Done:  E(RB3LYP) =  -839.982861966     A.U. after   12 cycles
 SCF Done:  E(RB3LYP) =  -839.986484961     A.U. after   11 cycles
 SCF Done:  E(RB3LYP) =  -839.989275617     A.U. after   12 cycles
 SCF Done:  E(RB3LYP) =  -839.990884882     A.U. after   12 cycles
 SCF Done:  E(RB3LYP) =  -839.992232261     A.U. after   11 cycles
 SCF Done:  E(RB3LYP) =  -839.992330147     A.U. after   11 cycles
 SCF Done:  E(RB3LYP) =  -840.004033106     A.U. after    8 cycles
 SCF Done:  E(RB3LYP) =  -840.004041751     A.U. after    8 cycles
 SCF Done:  E(RB3LYP) =  -840.004044603     A.U. after    8 cycles
 SCF Done:  E(RB3LYP) =  -840.004045867     A.U. after    7 cycles
 SCF Done:  E(RB3LYP) =  -840.004047170     A.U. after    7 cycles
 SCF Done:  E(RB3LYP) =  -840.004049024     A.U. after    8 cycles
 SCF Done:  E(RB3LYP) =  -840.004050529     A.U. after    8 cycles
 SCF Done:  E(RB3LYP) =  -840.004051231     A.U. after    7 cycles
 SCF Done:  E(RB3LYP) =  -840.004051545     A.U. after    7 cycles
 Optimization completed.
    -- Stationary point found.
 Normal termination of Gaussian 09 at Sun Jan 15 23:04:25 2017.

 --------------------------------------------------------------------
 #N Geom=AllCheck Guess=TCheck SCRF=Check GenChk RB3LYP/6-31G(d) Freq
 --------------------------------------------------------------------

 Structure from the checkpoint file:  "/scratch/10464878.yak.local/Gau-7429.chk"
 ----------------------------------
 glo_1w_beta_ircf_boat2_B3LYP_631Gd
 ----------------------------------
 Charge =  0 Multiplicity = 1

                         Standard orientation:
 ---------------------------------------------------------------------
 Center     Atomic      Atomic             Coordinates (Angstroms)
 Number     Number       Type             X           Y           Z
 ---------------------------------------------------------------------
      1          6           0        1.236112   -0.958593   -1.202973
      2          8           0        1.168297    0.489655   -1.005902
      3          1           0        3.590402    0.902975    1.334746
      4          8           0        2.486957   -1.382033   -0.767768
      5          1           0        2.384549   -1.548791    0.191656
      6          8           0        2.642068    1.089561    1.259462
      7          1           0        2.422786    0.938178    0.313278
      8          6           0       -0.499483    0.477489    0.763815
      9          6           0       -0.117107    1.000486   -0.635743
     10          6           0       -0.046235    2.525391   -0.674886
     11          8           0       -1.322877    3.083972   -0.314805
     12          8           0       -1.903681    0.642097    1.001992
     13          1           0        1.168811   -1.141839   -2.279171
     14          1           0       -2.089671    1.577033    0.781258
     15          1           0        0.048300    1.049749    1.525718
     16          1           0       -0.872948    0.649064   -1.347288
     17          1           0        0.275601    2.871112   -1.664883
     18          1           0        0.669359    2.893837    0.066164
     19          1           0       -1.891325    3.046340   -1.100412
     20          8           0       -3.337337   -1.600415    0.230760
     21          1           0       -3.012930   -0.723601    0.536493
     22          1           0       -3.495507   -2.104381    1.042748
     23          6           0       -0.109507   -1.010775    0.914912
     24          1           0       -0.915154   -1.518271    1.457658
     25          6           0        0.091319   -1.682102   -0.463652
     26          1           0        0.430804   -2.715585   -0.293072
     27          8           0        1.097476   -1.187001    1.667882
     28          1           0        1.575184   -0.328328    1.745840
     29          8           0       -1.051331   -1.647151   -1.290906
     30          1           0       -1.855425   -1.868346   -0.765287
 ---------------------------------------------------------------------

 SCF Done:  E(RB3LYP) =  -840.004051545     A.U. after    1 cycles

 The electronic state is 1-A.
 Alpha  occ. eigenvalues --  -19.18367 -19.16935 -19.16822 -19.15915 -19.15068
 Alpha  occ. eigenvalues --  -19.15042 -19.14852 -19.13147 -10.28579 -10.25140
 Alpha  occ. eigenvalues --  -10.24987 -10.24591 -10.24534 -10.23624  -1.07440
 Alpha  occ. eigenvalues --   -1.05233  -1.03707  -1.02178  -1.01497  -1.01238
 Alpha  occ. eigenvalues --   -1.00726  -0.99955  -0.78268  -0.76157  -0.69931
 Alpha  occ. eigenvalues --   -0.65060  -0.64007  -0.58518  -0.55296  -0.54645
 Alpha  occ. eigenvalues --   -0.53859  -0.52662  -0.51570  -0.50974  -0.49849
 Alpha  occ. eigenvalues --   -0.48931  -0.46743  -0.45481  -0.44285  -0.42073
 Alpha  occ. eigenvalues --   -0.41763  -0.41358  -0.40476  -0.39377  -0.38504
 Alpha  occ. eigenvalues --   -0.36442  -0.35861  -0.35188  -0.34815  -0.33967
 Alpha  occ. eigenvalues --   -0.31376  -0.30881  -0.30449  -0.30090  -0.29276
 Alpha  occ. eigenvalues --   -0.27709  -0.26175  -0.24985
 Alpha virt. eigenvalues --    0.03423   0.05989   0.06449   0.08358   0.09737
 Alpha virt. eigenvalues --    0.12205   0.12574   0.13242   0.14542   0.14649
 Alpha virt. eigenvalues --    0.15633   0.16334   0.17084   0.17921   0.19145

 Mulliken charges:
               1
     1  C    0.348472
     2  O   -0.550267
     3  H    0.402491
     4  O   -0.633141
     5  H    0.406420
     6  O   -0.815684
     7  H    0.429426
     8  C    0.088827
     9  C    0.103713
    10  C   -0.082307
    11  O   -0.623175
    12  O   -0.675916
    13  H    0.157388
    14  H    0.420726
    15  H    0.155659
    16  H    0.164540
    17  H    0.155212
    18  H    0.177858
    19  H    0.406901
    20  O   -0.811849
    21  H    0.434763
    22  H    0.396473
    23  C    0.099697
    24  H    0.132414
    25  C    0.063946
    26  H    0.140589
    27  O   -0.692378
    28  H    0.437459
    29  O   -0.673432
    30  H    0.435177
 Sum of Mulliken charges =  -0.00000

 Dipole moment (field-independent basis, Debye):
    X=             -0.5347    Y=              2.0391    Z=              0.5579  Tot=              2.1806
 Quadrupole moment (field-independent basis, Debye-Ang):
   XX=            -79.1090   YY=            -82.9756   ZZ=            -85.9558
   XY=              0.3331   XZ=             -0.0068   YZ=             -9.6387

  Exact polarizability: 103.350  -0.652  95.273   0.653  -1.722  83.086
 Approx polarizability: 141.357  -1.489 124.504   3.305  -1.195 122.761

                      1                      2                      3
                      A                      A                      A
 Frequencies --     64.5323                76.3977                84.0710
 Red. masses --      5.8797                 5.4613                 5.4228
 Frc consts  --      0.0144                 0.0188                 0.0226
 IR Inten    --      2.6826                 3.8915                 7.4187

                      4                      5                      6
                      A                      A                      A
 Frequencies --    112.1957               148.8769               169.7373
 Red. masses --      5.5492                 4.5100                 5.5530
 Frc consts  --      0.0412                 0.0589                 0.0943
 IR Inten    --      1.4383                 9.6146                 0.9626

                      7                      8                      9
                      A                      A                      A
 Frequencies --    176.0860               183.1506               203.6326
 Red. masses --      8.0638                 4.3461                 6.5134
 Frc consts  --      0.1473                 0.0859                 0.1591
 IR Inten    --      5.4203                19.4621                10.2398

                     10                     11                     12
                      A                      A                      A
 Frequencies --    229.2781               249.7830               254.6623
 Red. masses --      4.6824                 4.2227                 6.4017
 Frc consts  --      0.1450                 0.1552                 0.2446
 IR Inten    --      9.4498                 5.4329                 3.2383

                     13                     14                     15
                      A                      A                      A
 Frequencies --    290.3029               306.6986               319.1238
 Red. masses --      3.3221                 1.2253                 1.3880
 Frc consts  --      0.1650                 0.0679                 0.0833
 IR Inten    --     25.2079               196.4248                30.2652

                     16                     17                     18
                      A                      A                      A
 Frequencies --    329.8394               340.1120               351.8503
 Red. masses --      3.0259                 1.2089                 1.8515
 Frc consts  --      0.1940                 0.0824                 0.1351
 IR Inten    --     31.7010                50.1601                52.1274

                     19                     20                     21
                      A                      A                      A
 Frequencies --    360.6772               374.8381               392.4483
 Red. masses --      2.0428                 2.6135                 1.9590
 Frc consts  --      0.1566                 0.2163                 0.1778
 IR Inten    --    129.9424                17.8597                48.2092

                     22                     23                     24
                      A                      A                      A
 Frequencies --    418.1032               458.7755               473.8099
 Red. masses --      2.0205                 5.6449                 3.9100
 Frc consts  --      0.2081                 0.7000                 0.5172
 IR Inten    --     43.1778                 6.8144                 7.3490

                     25                     26                     27
                      A                      A                      A
 Frequencies --    510.7182               539.0657               564.0868
 Red. masses --      5.3835                 3.8922                 3.8252
 Frc consts  --      0.8273                 0.6664                 0.7171
 IR Inten    --     19.0122                 6.8021                 4.9726

                     28                     29                     30
                      A                      A                      A
 Frequencies --    581.7803               640.9321               655.6618
 Red. masses --      1.3035                 1.2994                 2.3265
 Frc consts  --      0.2600                 0.3145                 0.5893
 IR Inten    --     54.5259               141.8940               154.8547

                     31                     32                     33
                      A                      A                      A
 Frequencies --    678.2598               727.9015               811.7363
 Red. masses --      1.1553                 1.0787                 5.3855
 Frc consts  --      0.3131                 0.3368                 2.0908
 IR Inten    --    174.7490               132.6442                76.8263

                     34                     35                     36
                      A                      A                      A
 Frequencies --    862.3308               890.4850               910.7403
 Red. masses --      3.1174                 2.1956                 1.1933
 Frc consts  --      1.3658                 1.0258                 0.5832
 IR Inten    --     11.3194                12.7598                73.4933

                     37                     38                     39
                      A                      A                      A
 Frequencies --    917.4646               949.2644              1020.7036
 Red. masses --      1.0616                 2.1850                 2.5635
 Frc consts  --      0.5265                 1.1600                 1.5736
 IR Inten    --    108.7065                35.3519                57.6209

                     40                     41                     42
                      A                      A                      A
 Frequencies --   1035.2383              1055.8843              1077.0553
 Red. masses --      5.4462                 4.8515                 4.0027
 Frc consts  --      3.4390                 3.1869                 2.7358
 IR Inten    --    130.8228               122.6708               173.5015

                     43                     44                     45
                      A                      A                      A
 Frequencies --   1087.8334              1096.5909              1113.5954
 Red. masses --      2.2083                 4.5954                 2.7365
 Frc consts  --      1.5397                 3.2558                 1.9994
 IR Inten    --     48.4883                25.4848                52.3050

                     46                     47                     48
                      A                      A                      A
 Frequencies --   1137.4038              1149.0586              1156.7868
 Red. masses --      3.6022                 2.2906                 3.1822
 Frc consts  --      2.7457                 1.7819                 2.5089
 IR Inten    --     28.9299                 0.6922                70.8625

                     49                     50                     51
                      A                      A                      A
 Frequencies --   1196.5670              1269.7288              1296.5811
 Red. masses --      1.5689                 1.5530                 1.1102
 Frc consts  --      1.3235                 1.4751                 1.0996
 IR Inten    --     38.2654                 6.1717                33.0286

                     52                     53                     54
                      A                      A                      A
 Frequencies --   1309.4187              1329.5875              1349.0941
 Red. masses --      1.1561                 1.2715                 1.1598
 Frc consts  --      1.1679                 1.3243                 1.2437
 IR Inten    --     12.6658                 2.2181                 7.1275

                     55                     56                     57
                      A                      A                      A
 Frequencies --   1357.8612              1359.9975              1384.1614
 Red. masses --      1.2564                 1.1397                 1.2337
 Frc consts  --      1.3648                 1.2420                 1.3926
 IR Inten    --     15.4528                14.4025                12.0202

                     58                     59                     60
                      A                      A                      A
 Frequencies --   1399.9350              1402.9587              1425.8666
 Red. masses --      1.2898                 1.2871                 1.4144
 Frc consts  --      1.4893                 1.4926                 1.6942
 IR Inten    --      4.1064                46.1515                10.0132

                     61                     62                     63
                      A                      A                      A
 Frequencies --   1433.5311              1470.7514              1478.4042
 Red. masses --      1.3446                 1.2931                 1.4181
 Frc consts  --      1.6280                 1.6480                 1.8262
 IR Inten    --     22.4300                28.3189                43.4093

                     64                     65                     66
                      A                      A                      A
 Frequencies --   1490.4475              1513.5990              1540.6636
 Red. masses --      1.2824                 1.2964                 1.0862
 Frc consts  --      1.6784                 1.7498                 1.5191
 IR Inten    --     20.0836               142.4562                 2.3141

                     67                     68                     69
                      A                      A                      A
 Frequencies --   1707.1616              1718.5325              3010.3687
 Red. masses --      1.0784                 1.0762                 1.0845
 Frc consts  --      1.8518                 1.8727                 5.7903
 IR Inten    --     88.0385                48.9580                54.8270

                     70                     71                     72
                      A                      A                      A
 Frequencies --   3031.3245              3059.9437              3070.3985
 Red. masses --      1.0847                 1.0631                 1.0860
 Frc consts  --      5.8726                 5.8647                 6.0320
 IR Inten    --     20.3012                38.3049                40.6399

                     73                     74                     75
                      A                      A                      A
 Frequencies --   3074.8917              3105.6658              3127.5096
 Red. masses --      1.0856                 1.0885                 1.1048
 Frc consts  --      6.0474                 6.1855                 6.3671
 IR Inten    --     18.7043                43.2760                21.4383

                     76                     77                     78
                      A                      A                      A
 Frequencies --   3448.4049              3452.4900              3537.3753
 Red. masses --      1.0679                 1.0677                 1.0596
 Frc consts  --      7.4822                 7.4984                 7.8121
 IR Inten    --    338.3180               164.7634               747.7135

                     79                     80                     81
                      A                      A                      A
 Frequencies --   3545.2490              3592.6469              3613.2589
 Red. masses --      1.0591                 1.0653                 1.0652
 Frc consts  --      7.8429                 8.1009                 8.1938
 IR Inten    --    346.4303               125.0868               147.9818

                     82                     83                     84
                      A                      A                      A
 Frequencies --   3741.9895              3797.5061              3804.3595
 Red. masses --      1.0665                 1.0703                 1.0699
 Frc consts  --      8.7983                 9.0942                 9.1237
 IR Inten    --     28.9109                72.9647                63.4616

 - Thermochemistry -
 -------------------
 Temperature   298.150 Kelvin.  Pressure   1.00000 Atm.
 Atom     1 has atomic number  6 and mass  12.00000

 Molecular mass:   216.08452 amu.
 Principal axes and moments of inertia in atomic units:
                           1         2         3
     Eigenvalues --  2614.772722965.749524072.96961
           X            0.99791   0.06444   0.00478
           Y           -0.06435   0.99779  -0.01684
           Z           -0.00585   0.01650   0.99985
 This molecule is an asymmetric top.
 Rotational symmetry number  1.
 Warning -- assumption of classical behavior for rotation
           may cause significant error
 Rotational temperatures (Kelvin)      0.03312     0.02920     0.02127
 Rotational constants (GHZ):           0.69021     0.60853     0.44310
 Zero-point vibrational energy     657873.1 (Joules/Mol)
                                  157.23544 (Kcal/Mol)
 Warning -- explicit consideration of  28 degrees of freedom as
           vibrations may cause significant error
 Vibrational temperatures:     92.85   109.92   120.96   161.42   214.20
          (Kelvin)            244.21   253.35   263.51   292.98   329.88
                              359.38   366.40   417.68   441.27   459.15
                              474.56   489.34   506.23   518.93   539.31
                              564.64   601.56   660.07   681.71   734.81
                              775.59   811.59   837.05   922.16   943.35
                              975.86  1047.29  1167.91  1240.70  1281.21
                             1310.35  1320.03  1365.78  1468.56  1489.48
                             1519.18  1549.64  1565.15  1577.75  1602.21
                             1636.47  1653.24  1664.36  1721.59  1826.85
                             1865.49  1883.96  1912.98  1941.04  1953.66
                             1956.73  1991.50  2014.19  2018.54  2051.50
                             2062.53  2116.08  2127.09  2144.42  2177.73
                             2216.67  2456.22  2472.58  4331.24  4361.39
                             4402.57  4417.61  4424.08  4468.35  4499.78
                             4961.48  4967.36  5089.49  5100.82  5169.01
                             5198.67  5383.88  5463.76  5473.62

 Zero-point correction=                           0.250571 (Hartree/Particle)
 Thermal correction to Energy=                    0.267109
 Thermal correction to Enthalpy=                  0.268053
 Thermal correction to Gibbs Free Energy=         0.208573
 Sum of electronic and zero-point Energies=           -839.753481
 Sum of electronic and thermal Energies=              -839.736943
 Sum of electronic and thermal Enthalpies=            -839.735999
 Sum of electronic and thermal Free Energies=         -839.795478

                     E (Thermal)             CV                S
                      KCal/Mol        Cal/Mol-Kelvin    Cal/Mol-Kelvin
 Total                  167.613             63.070            125.185
 Electronic               0.000              0.000              0.000
 Translational            0.889              2.981             42.015
 Rotational               0.889              2.981             31.824
 Vibrational            165.836             57.108             51.346
 Vibration     1          0.597              1.971              4.314
 Vibration     2          0.599              1.965              3.981
 Vibration     3          0.601              1.960              3.794
 Vibration     4          0.607              1.939              3.231
 Vibration     5          0.618              1.904              2.687
 Vibration     6          0.625              1.880              2.438
 Vibration     7          0.628              1.872              2.370
 Vibration     8          0.631              1.863              2.296
 Vibration     9          0.639              1.835              2.100
 Vibration    10          0.652              1.796              1.885
 Vibration    11          0.663              1.763              1.732
 Vibration    12          0.665              1.755              1.698
 Vibration    13          0.686              1.692              1.472
 Vibration    14          0.697              1.661              1.380
 Vibration    15          0.705              1.637              1.315
 Vibration    16          0.713              1.616              1.261
 Vibration    17          0.720              1.595              1.212
 Vibration    18          0.728              1.571              1.158
 Vibration    19          0.735              1.553              1.119
 Vibration    20          0.746              1.524              1.060
 Vibration    21          0.760              1.486              0.991
 Vibration    22          0.781              1.431              0.898
 Vibration    23          0.817              1.341              0.770
 Vibration    24          0.831              1.308              0.727
 Vibration    25          0.866              1.226              0.632
 Vibration    26          0.894              1.164              0.567
 Vibration    27          0.920              1.109              0.516
 Vibration    28          0.939              1.071              0.482

 Normal termination of Gaussian 09 at Mon Jan 16 00:33:26 2017.
