 Gaussian 09, Revision E.01,
 Gaussian 09:  ES64L-G09RevE.01 30-Nov-2015

 -------------------------
 # b3lyp/6-31g(d) opt freq
 -------------------------

 -----------------------------------
 glo_2w_alpha_ircr_boat2_B3LYP_631Gd
 -----------------------------------
 Symbolic Z-matrix:
 Charge =  0 Multiplicity = 1

 SCF Done:  E(RB3LYP) =  -840.004779267     A.U. after   14 cycles
 SCF Done:  E(RB3LYP) =  -840.006965801     A.U. after   12 cycles
 SCF Done:  E(RB3LYP) =  -840.010839688     A.U. after   12 cycles
 SCF Done:  E(RB3LYP) =  -840.012862525     A.U. after   12 cycles
 SCF Done:  E(RB3LYP) =  -840.013890989     A.U. after   12 cycles
 SCF Done:  E(RB3LYP) =  -840.014378902     A.U. after   11 cycles
 SCF Done:  E(RB3LYP) =  -840.014544020     A.U. after   11 cycles
 SCF Done:  E(RB3LYP) =  -840.014636241     A.U. after   11 cycles
 SCF Done:  E(RB3LYP) =  -840.014702001     A.U. after   10 cycles
 SCF Done:  E(RB3LYP) =  -840.014749188     A.U. after    9 cycles
 SCF Done:  E(RB3LYP) =  -840.014913049     A.U. after    8 cycles
 SCF Done:  E(RB3LYP) =  -840.014919849     A.U. after    8 cycles
 SCF Done:  E(RB3LYP) =  -840.014923348     A.U. after    8 cycles
 SCF Done:  E(RB3LYP) =  -840.014925425     A.U. after    7 cycles
 SCF Done:  E(RB3LYP) =  -840.014927471     A.U. after    7 cycles
 SCF Done:  E(RB3LYP) =  -840.014929273     A.U. after    7 cycles
 SCF Done:  E(RB3LYP) =  -840.014930027     A.U. after    7 cycles
 SCF Done:  E(RB3LYP) =  -840.014930426     A.U. after    7 cycles
 SCF Done:  E(RB3LYP) =  -840.014930592     A.U. after    7 cycles
 Optimization completed.
    -- Stationary point found.
 Normal termination of Gaussian 09 at Sun Jan 15 21:56:01 2017.

 --------------------------------------------------------------------
 #N Geom=AllCheck Guess=TCheck SCRF=Check GenChk RB3LYP/6-31G(d) Freq
 --------------------------------------------------------------------

 Structure from the checkpoint file:  "/scratch/10464876.yak.local/Gau-14360.chk"
 -----------------------------------
 glo_2w_alpha_ircr_boat2_B3LYP_631Gd
 -----------------------------------
 Charge =  0 Multiplicity = 1

                         Standard orientation:
 ---------------------------------------------------------------------
 Center     Atomic      Atomic             Coordinates (Angstroms)
 Number     Number       Type             X           Y           Z
 ---------------------------------------------------------------------
      1          6           0        0.060401   -1.341903    0.326319
      2          8           0        0.417155    0.032750    0.619613
      3          1           0        3.063301    1.291296    0.402148
      4          1           0        3.734757   -2.382421    0.067072
      5          8           0        3.310479   -1.700337   -0.473977
      6          1           0        3.424166   -0.850949    0.037597
      7          8           0        3.192623    0.536712    1.012596
      8          1           0        2.260670    0.325590    1.215988
      9          6           0       -1.740279    1.027684    0.007448
     10          6           0       -0.214489    0.965893   -0.283553
     11          1           0       -1.969441    1.872344    0.668444
     12          1           0       -0.080762    0.594903   -1.307530
     13          8           0       -2.459795    1.250812   -1.192475
     14          1           0       -2.417201    0.399169   -1.669034
     15          6           0        0.453751    2.326229   -0.157333
     16          8           0        1.803447    2.365459   -0.631621
     17          1           0        0.502063    2.626268    0.894311
     18          1           0       -0.165492    3.058792   -0.692810
     19          1           0        1.795656    2.164605   -1.581099
     20          1           0        0.381221   -1.873843    1.229685
     21          8           0        0.676015   -1.817854   -0.815550
     22          1           0        1.670877   -1.847856   -0.693658
     23          6           0       -1.476390   -1.474649    0.120757
     24          1           0       -1.816970   -2.399327    0.605967
     25          6           0       -2.184465   -0.260807    0.741660
     26          1           0       -3.265872   -0.361571    0.614508
     27          8           0       -1.802386   -1.497457   -1.268513
     28          1           0       -1.018082   -1.876617   -1.711150
     29          8           0       -1.947765   -0.198023    2.142418
     30          1           0       -1.008259    0.028438    2.247845
 ---------------------------------------------------------------------

 SCF Done:  E(RB3LYP) =  -840.014930592     A.U. after    1 cycles

 The electronic state is 1-A.
 Alpha  occ. eigenvalues --  -19.18594 -19.18226 -19.16112 -19.15952 -19.15428
 Alpha  occ. eigenvalues --  -19.15010 -19.14684 -19.14178 -10.30330 -10.25686
 Alpha  occ. eigenvalues --  -10.25347 -10.24762 -10.24288 -10.24112  -1.08961
 Alpha  occ. eigenvalues --   -1.05068  -1.03514  -1.03209  -1.01751  -1.01602
 Alpha  occ. eigenvalues --   -1.00844  -0.99666  -0.78878  -0.76955  -0.70268
 Alpha  occ. eigenvalues --   -0.65626  -0.64036  -0.58459  -0.56578  -0.55085
 Alpha  occ. eigenvalues --   -0.53376  -0.53185  -0.52196  -0.51537  -0.51288
 Alpha  occ. eigenvalues --   -0.47642  -0.45720  -0.45095  -0.44326  -0.43781
 Alpha  occ. eigenvalues --   -0.42989  -0.41796  -0.40340  -0.39818  -0.38689
 Alpha  occ. eigenvalues --   -0.37640  -0.37116  -0.36023  -0.33852  -0.32838
 Alpha  occ. eigenvalues --   -0.31651  -0.31416  -0.31064  -0.30313  -0.29999
 Alpha  occ. eigenvalues --   -0.28805  -0.27379  -0.25132
 Alpha virt. eigenvalues --    0.04148   0.05985   0.06148   0.08633   0.10193
 Alpha virt. eigenvalues --    0.11259   0.11559   0.12476   0.13598   0.13689
 Alpha virt. eigenvalues --    0.15032   0.15433   0.16339   0.17777   0.18444

 Mulliken charges:
               1
     1  C    0.328086
     2  O   -0.552414
     3  H    0.427704
     4  H    0.398879
     5  O   -0.827263
     6  H    0.429462
     7  O   -0.831877
     8  H    0.417256
     9  C    0.083214
    10  C    0.113496
    11  H    0.147478
    12  H    0.140184
    13  O   -0.648097
    14  H    0.416750
    15  C   -0.079282
    16  O   -0.625381
    17  H    0.164636
    18  H    0.167969
    19  H    0.406427
    20  H    0.137804
    21  O   -0.680817
    22  H    0.453350
    23  C    0.074092
    24  H    0.145714
    25  C    0.100186
    26  H    0.164416
    27  O   -0.664589
    28  H    0.430740
    29  O   -0.637603
    30  H    0.399479
 Sum of Mulliken charges =   0.00000

 Dipole moment (field-independent basis, Debye):
    X=              1.8796    Y=             -0.6143    Z=             -0.4452  Tot=              2.0270
 Quadrupole moment (field-independent basis, Debye-Ang):
   XX=            -95.9273   YY=            -78.9603   ZZ=            -85.0605
   XY=             -2.3872   XZ=             -0.1640   YZ=             -4.3315

  Exact polarizability: 100.875  -2.336  94.439   0.799  -0.829  84.848
 Approx polarizability: 129.857  -3.784 123.970   3.940   1.424 131.458

                      1                      2                      3
                      A                      A                      A
 Frequencies --     44.9195                61.7531                74.7656
 Red. masses --      5.6605                 6.0372                 6.2291
 Frc consts  --      0.0067                 0.0136                 0.0205
 IR Inten    --      1.9835                 2.3554                 1.1896

                      4                      5                      6
                      A                      A                      A
 Frequencies --    109.0197               123.0097               150.2836
 Red. masses --      5.8189                 6.8159                 5.4746
 Frc consts  --      0.0407                 0.0608                 0.0728
 IR Inten    --      1.0021                 4.2629                 2.5449

                      7                      8                      9
                      A                      A                      A
 Frequencies --    178.9436               207.0760               217.5438
 Red. masses --      5.1211                 3.6306                 4.1519
 Frc consts  --      0.0966                 0.0917                 0.1158
 IR Inten    --      1.2996                 9.2583                13.4446

                     10                     11                     12
                      A                      A                      A
 Frequencies --    226.5429               240.7707               260.4666
 Red. masses --      4.7827                 5.7668                 6.2898
 Frc consts  --      0.1446                 0.1970                 0.2514
 IR Inten    --     12.6007                 7.3906                 8.5437

                     13                     14                     15
                      A                      A                      A
 Frequencies --    292.2522               302.1284               315.3321
 Red. masses --      1.9709                 2.7938                 1.5091
 Frc consts  --      0.0992                 0.1503                 0.0884
 IR Inten    --     56.1045                 9.4950                19.7716

                     16                     17                     18
                      A                      A                      A
 Frequencies --    342.0253               343.1177               393.1847
 Red. masses --      1.1377                 1.8950                 3.6570
 Frc consts  --      0.0784                 0.1314                 0.3331
 IR Inten    --    144.7778                58.8839                39.2313

                     19                     20                     21
                      A                      A                      A
 Frequencies --    406.8572               425.6262               441.9479
 Red. masses --      3.8831                 4.4982                 1.1078
 Frc consts  --      0.3787                 0.4801                 0.1275
 IR Inten    --      8.4575                 3.8649                54.4515

                     22                     23                     24
                      A                      A                      A
 Frequencies --    473.8147               477.3754               528.9376
 Red. masses --      4.6449                 4.0292                 2.1825
 Frc consts  --      0.6144                 0.5410                 0.3598
 IR Inten    --     15.2479                 8.9623                 9.2176

                     25                     26                     27
                      A                      A                      A
 Frequencies --    530.1842               539.4790               577.0121
 Red. masses --      1.6920                 1.1667                 1.3743
 Frc consts  --      0.2802                 0.2001                 0.2696
 IR Inten    --     32.6216               101.4386                33.4136

                     28                     29                     30
                      A                      A                      A
 Frequencies --    585.2330               600.9000               654.7591
 Red. masses --      3.4151                 2.3173                 1.1252
 Frc consts  --      0.6891                 0.4930                 0.2842
 IR Inten    --      9.0046                37.4533               201.9150

                     31                     32                     33
                      A                      A                      A
 Frequencies --    701.3866               780.5769               790.1048
 Red. masses --      4.6585                 1.1394                 2.8799
 Frc consts  --      1.3502                 0.4090                 1.0593
 IR Inten    --      4.9876               159.0217                49.4026

                     34                     35                     36
                      A                      A                      A
 Frequencies --    861.2066               868.3505               908.3857
 Red. masses --      2.6623                 4.2805                 2.8183
 Frc consts  --      1.1634                 1.9017                 1.3702
 IR Inten    --     19.8264                30.3342                 5.6215

                     37                     38                     39
                      A                      A                      A
 Frequencies --    943.9000               992.2232              1032.9733
 Red. masses --      1.0793                 3.9561                 3.1480
 Frc consts  --      0.5666                 2.2948                 1.9791
 IR Inten    --    166.9396               164.4471                44.1141

                     40                     41                     42
                      A                      A                      A
 Frequencies --   1045.8878              1054.8126              1080.0271
 Red. masses --      3.1680                 1.1283                 2.8093
 Frc consts  --      2.0418                 0.7397                 1.9307
 IR Inten    --    197.6034                85.8193                94.6853

                     43                     44                     45
                      A                      A                      A
 Frequencies --   1091.7076              1093.9100              1112.5936
 Red. masses --      3.4589                 4.2590                 3.8963
 Frc consts  --      2.4289                 3.0027                 2.8417
 IR Inten    --     21.0970                98.5098                34.0097

                     46                     47                     48
                      A                      A                      A
 Frequencies --   1117.3682              1132.1154              1173.1485
 Red. masses --      2.3667                 2.4517                 3.9433
 Frc consts  --      1.7409                 1.8514                 3.1976
 IR Inten    --      1.4274                 8.9361                85.4107

                     49                     50                     51
                      A                      A                      A
 Frequencies --   1213.9449              1250.4910              1262.2021
 Red. masses --      1.3611                 1.3815                 1.2098
 Frc consts  --      1.1818                 1.2728                 1.1356
 IR Inten    --     13.9570                59.4969                35.7772

                     52                     53                     54
                      A                      A                      A
 Frequencies --   1292.7151              1315.8903              1334.5948
 Red. masses --      1.2308                 1.2407                 1.2664
 Frc consts  --      1.2118                 1.2658                 1.3290
 IR Inten    --      1.8444                58.7393                33.9291

                     55                     56                     57
                      A                      A                      A
 Frequencies --   1344.7215              1383.6678              1386.8860
 Red. masses --      1.2999                 1.2519                 1.2730
 Frc consts  --      1.3849                 1.4122                 1.4426
 IR Inten    --      7.3651                 1.3232                 9.5626

                     58                     59                     60
                      A                      A                      A
 Frequencies --   1390.2315              1419.8585              1423.4047
 Red. masses --      1.3240                 1.2493                 1.2804
 Frc consts  --      1.5077                 1.4839                 1.5284
 IR Inten    --     20.1404                 8.4266                20.9096

                     61                     62                     63
                      A                      A                      A
 Frequencies --   1439.9003              1447.7398              1454.1940
 Red. masses --      1.3503                 1.2772                 1.5114
 Frc consts  --      1.6495                 1.5772                 1.8831
 IR Inten    --     15.4358                30.2905                79.3948

                     64                     65                     66
                      A                      A                      A
 Frequencies --   1473.0175              1509.3811              1516.9840
 Red. masses --      1.2159                 1.2869                 1.0875
 Frc consts  --      1.5545                 1.7274                 1.4745
 IR Inten    --     84.6185                78.2025                 2.5451

                     67                     68                     69
                      A                      A                      A
 Frequencies --   1742.3262              1778.2762              3040.5769
 Red. masses --      1.0735                 1.0767                 1.0860
 Frc consts  --      1.9200                 2.0060                 5.9153
 IR Inten    --     71.7076               239.0109                24.4846

                     70                     71                     72
                      A                      A                      A
 Frequencies --   3047.2086              3053.8237              3067.8645
 Red. masses --      1.0658                 1.0829                 1.0865
 Frc consts  --      5.8311                 5.9501                 6.0249
 IR Inten    --     18.7994                12.9631                71.6629

                     73                     74                     75
                      A                      A                      A
 Frequencies --   3069.3727              3111.6975              3118.1887
 Red. masses --      1.0869                 1.0876                 1.1014
 Frc consts  --      6.0328                 6.2048                 6.3098
 IR Inten    --     50.0823                33.8460                17.6612

                     76                     77                     78
                      A                      A                      A
 Frequencies --   3139.4415              3296.4827              3629.0166
 Red. masses --      1.0711                 1.0633                 1.0499
 Frc consts  --      6.2201                 6.8078                 8.1466
 IR Inten    --   1017.8740              1018.9786               213.9988

                     79                     80                     81
                      A                      A                      A
 Frequencies --   3635.0962              3647.2044              3674.4122
 Red. masses --      1.0650                 1.0645                 1.0752
 Frc consts  --      8.2916                 8.3432                 8.5525
 IR Inten    --    153.2541                43.1508               212.5289

                     82                     83                     84
                      A                      A                      A
 Frequencies --   3713.2273              3740.7227              3803.1667
 Red. masses --      1.0652                 1.0662                 1.0666
 Frc consts  --      8.6536                 8.7901                 9.0899
 IR Inten    --     27.8606                24.1338                42.7937

 - Thermochemistry -
 -------------------
 Temperature   298.150 Kelvin.  Pressure   1.00000 Atm.
 Atom     1 has atomic number  6 and mass  12.00000

 Molecular mass:   216.08452 amu.
 Principal axes and moments of inertia in atomic units:
                           1         2         3
     Eigenvalues --  2276.569983575.105694454.65908
           X            0.99995  -0.00950   0.00102
           Y            0.00951   0.99992  -0.00838
           Z           -0.00094   0.00839   0.99996
 This molecule is an asymmetric top.
 Rotational symmetry number  1.
 Warning -- assumption of classical behavior for rotation
           may cause significant error
 Rotational temperatures (Kelvin)      0.03805     0.02423     0.01944
 Rotational constants (GHZ):           0.79275     0.50481     0.40514
 Zero-point vibrational energy     658387.9 (Joules/Mol)
                                  157.35850 (Kcal/Mol)
 Warning -- explicit consideration of  29 degrees of freedom as
           vibrations may cause significant error
 Vibrational temperatures:     64.63    88.85   107.57   156.85   176.98
          (Kelvin)            216.22   257.46   297.94   313.00   325.94
                              346.41   374.75   420.49   434.69   453.69
                              492.10   493.67   565.70   585.38   612.38
                              635.86   681.71   686.84   761.02   762.82
                              776.19   830.19   842.02   864.56   942.05
                             1009.14  1123.07  1136.78  1239.08  1249.36
                             1306.96  1358.06  1427.59  1486.22  1504.80
                             1517.64  1553.92  1570.72  1573.89  1600.77
                             1607.64  1628.86  1687.90  1746.59  1799.18
                             1816.03  1859.93  1893.27  1920.18  1934.75
                             1990.79  1995.42  2000.23  2042.86  2047.96
                             2071.69  2082.97  2092.26  2119.34  2171.66
                             2182.60  2506.82  2558.54  4374.71  4384.25
                             4393.77  4413.97  4416.14  4477.03  4486.37
                             4516.95  4742.90  5221.34  5230.09  5247.51
                             5286.65  5342.50  5382.06  5471.90

 Zero-point correction=                           0.250767 (Hartree/Particle)
 Thermal correction to Energy=                    0.267098
 Thermal correction to Enthalpy=                  0.268042
 Thermal correction to Gibbs Free Energy=         0.208262
 Sum of electronic and zero-point Energies=           -839.764164
 Sum of electronic and thermal Energies=              -839.747832
 Sum of electronic and thermal Enthalpies=            -839.746888
 Sum of electronic and thermal Free Energies=         -839.806668

                     E (Thermal)             CV                S
                      KCal/Mol        Cal/Mol-Kelvin    Cal/Mol-Kelvin
 Total                  167.607             62.280            125.817
 Electronic               0.000              0.000              0.000
 Translational            0.889              2.981             42.015
 Rotational               0.889              2.981             31.961
 Vibrational            165.829             56.319             51.841
 Vibration     1          0.595              1.979              5.029
 Vibration     2          0.597              1.973              4.400
 Vibration     3          0.599              1.966              4.024
 Vibration     4          0.606              1.942              3.286
 Vibration     5          0.610              1.930              3.053
 Vibration     6          0.618              1.902              2.669
 Vibration     7          0.629              1.868              2.339
 Vibration     8          0.641              1.830              2.069
 Vibration     9          0.646              1.814              1.979
 Vibration    10          0.650              1.801              1.906
 Vibration    11          0.658              1.778              1.797
 Vibration    12          0.669              1.745              1.659
 Vibration    13          0.688              1.688              1.461
 Vibration    14          0.694              1.670              1.405
 Vibration    15          0.703              1.644              1.334
 Vibration    16          0.721              1.591              1.203
 Vibration    17          0.722              1.589              1.198
 Vibration    18          0.760              1.485              0.988
 Vibration    19          0.772              1.455              0.938
 Vibration    20          0.787              1.414              0.873
 Vibration    21          0.802              1.379              0.821
 Vibration    22          0.831              1.308              0.727
 Vibration    23          0.834              1.300              0.717
 Vibration    24          0.884              1.186              0.590
 Vibration    25          0.885              1.183              0.587
 Vibration    26          0.895              1.163              0.566
 Vibration    27          0.933              1.081              0.491
 Vibration    28          0.942              1.063              0.476
 Vibration    29          0.959              1.030              0.448

 Normal termination of Gaussian 09 at Sun Jan 15 22:28:51 2017.
