 Gaussian 09, Revision E.01,
 Gaussian 09:  ES64L-G09RevE.01 30-Nov-2015

 ------------------------------------------------------
 # opt=(modredundant,MaxCycle=1000) freq B3LYP/6-31G(d)
 ------------------------------------------------------

 -------------------
 Title Card Required
 -------------------
 Symbolic Z-matrix:
 Charge =  0 Multiplicity = 1

 SCF Done:  E(RB3LYP) =  -839.955736082     A.U. after   14 cycles
 SCF Done:  E(RB3LYP) =  -839.965965719     A.U. after   13 cycles
 SCF Done:  E(RB3LYP) =  -839.973192244     A.U. after   11 cycles
 SCF Done:  E(RB3LYP) =  -839.976844527     A.U. after   11 cycles
 SCF Done:  E(RB3LYP) =  -839.977485276     A.U. after   10 cycles
 SCF Done:  E(RB3LYP) =  -839.978903432     A.U. after   11 cycles
 SCF Done:  E(RB3LYP) =  -839.978904244     A.U. after    4 cycles
 SCF Done:  E(RB3LYP) =  -839.979544080     A.U. after   13 cycles
 SCF Done:  E(RB3LYP) =  -839.980639441     A.U. after   13 cycles
 SCF Done:  E(RB3LYP) =  -839.981398034     A.U. after   11 cycles
 SCF Done:  E(RB3LYP) =  -839.987631623     A.U. after    7 cycles
 SCF Done:  E(RB3LYP) =  -839.987632601     A.U. after    7 cycles
 SCF Done:  E(RB3LYP) =  -839.987633435     A.U. after    7 cycles
 SCF Done:  E(RB3LYP) =  -839.987634171     A.U. after    7 cycles
 SCF Done:  E(RB3LYP) =  -839.987634934     A.U. after    7 cycles
 SCF Done:  E(RB3LYP) =  -839.987635791     A.U. after    7 cycles
 SCF Done:  E(RB3LYP) =  -839.987636371     A.U. after    7 cycles
 SCF Done:  E(RB3LYP) =  -839.987636574     A.U. after    6 cycles
 SCF Done:  E(RB3LYP) =  -839.987636823     A.U. after    6 cycles
 Optimization completed.
    -- Stationary point found.

 1\1\GINC-TATANKA\FOpt\RB3LYP\6-31G(d)\C6H16O8\AALRAWAS\16-Jan-2017\0\\
 # opt=(modredundant,MaxCycle=1000) freq B3LYP/6-31G(d)\\Title Card Req
 uired\\0,1\H,0.008167554,0.5778711954,-0.6590805327\C,-0.5211103241,0.
 4541674769,0.2920479987\C,-2.2814815862,2.2111786191,0.6708533713\C,-2
 .7928689475,-0.3005079581,0.9155868148\C,-3.0846731364,1.1469620071,1.
 4292026562\O,-1.6970026875,-0.2714519824,-0.0535907508\C,-0.7997199464
 ,1.8868743182,0.8231514487\H,-2.7832859871,1.2083183994,2.4891668486\H
 ,-0.5604700212,1.949287552,1.8942634122\C,0.4097516889,-0.3224402205,1

 Normal termination of Gaussian 09 at Mon Jan 16 22:02:25 2017.

 --------------------------------------------------------------------
 #N Geom=AllCheck Guess=TCheck SCRF=Check GenChk RB3LYP/6-31G(d) Freq
 --------------------------------------------------------------------

 Structure from the checkpoint file:  "//home/aalrawas/scratch/Gau-23820.chk"
 -------------------
 Title Card Required
 -------------------
 Charge =  0 Multiplicity = 1

                         Standard orientation:
 ---------------------------------------------------------------------
 Center     Atomic      Atomic             Coordinates (Angstroms)
 Number     Number       Type             X           Y           Z
 ---------------------------------------------------------------------
      1          1           0        0.853274    1.460758    1.468895
      2          6           0        0.460465    1.405212    0.447769
      3          6           0        0.149900   -0.958254   -0.356634
      4          6           0       -1.729605    0.793512   -0.526211
      5          6           0       -1.042708   -0.450951   -1.177059
      6          8           0       -0.944682    1.249781    0.621302
      7          6           0        1.150917    0.182984   -0.216894
      8          1           0       -0.652882   -0.156371   -2.166696
      9          1           0        1.493158    0.442536   -1.228784
     10          6           0        0.836941    2.713735   -0.247482
     11          1           0        0.371235    3.560249    0.274546
     12          1           0        0.492033    2.718250   -1.292690
     13          1           0       -0.212641   -1.253842    0.638763
     14          8           0        2.265298    2.766374   -0.178141
     15          1           0        2.574121    3.536946   -0.676794
     16          8           0       -1.989941   -1.489955   -1.317005
     17          1           0       -1.448586   -2.280291   -1.499118
     18          8           0        0.654347   -2.076933   -1.061145
     19          1           0        1.253322   -2.576140   -0.456835
     20          8           0        2.291434   -0.219008    0.555571
     21          1           0        2.912006    0.529028    0.524466
     22          1           0       -1.776137    1.617571   -1.247760
     23          8           0       -3.010145    0.583840   -0.096204
     24          1           0       -3.018126   -0.218225    0.469061
     25          8           0       -2.354740   -0.697942    2.270498
     26          1           0       -1.769297    0.063113    2.096558
     27          1           0       -1.757988   -1.437732    2.457262
     28          8           0        2.556081   -2.972390    0.719116
     29          1           0        2.688484   -2.003836    0.811378
     30          1           0        3.301358   -3.269588    0.174876
 ---------------------------------------------------------------------

 SCF Done:  E(RB3LYP) =  -839.987636823     A.U. after    1 cycles

 The electronic state is 1-A.
 Alpha  occ. eigenvalues --  -19.17837 -19.17655 -19.16426 -19.15640 -19.14250
 Alpha  occ. eigenvalues --  -19.13892 -19.13790 -19.13708 -10.28613 -10.25361
 Alpha  occ. eigenvalues --  -10.25267 -10.25035 -10.24026 -10.23633  -1.06912
 Alpha  occ. eigenvalues --   -1.05031  -1.04390  -1.02747  -1.01406  -1.00524
 Alpha  occ. eigenvalues --   -0.99953  -0.99367  -0.78897  -0.76510  -0.70135
 Alpha  occ. eigenvalues --   -0.64262  -0.62862  -0.57304  -0.56287  -0.55258
 Alpha  occ. eigenvalues --   -0.53489  -0.53416  -0.52049  -0.49844  -0.49222
 Alpha  occ. eigenvalues --   -0.47905  -0.47232  -0.45793  -0.44158  -0.44005
 Alpha  occ. eigenvalues --   -0.42356  -0.40190  -0.39321  -0.38627  -0.37861
 Alpha  occ. eigenvalues --   -0.36009  -0.35785  -0.34962  -0.34144  -0.32405
 Alpha  occ. eigenvalues --   -0.31175  -0.30590  -0.30083  -0.29333  -0.28006
 Alpha  occ. eigenvalues --   -0.27325  -0.26565  -0.25653
 Alpha virt. eigenvalues --    0.03209   0.05528   0.06158   0.07276   0.08759
 Alpha virt. eigenvalues --    0.09393   0.11573   0.12676   0.14046   0.14732
 Alpha virt. eigenvalues --    0.14934   0.16647   0.16839   0.18085   0.18569

 Mulliken charges:
               1
     1  H    0.158816
     2  C    0.113551
     3  C    0.095227
     4  C    0.346435
     5  C    0.101101
     6  O   -0.529135
     7  C    0.112444
     8  H    0.118304
     9  H    0.134842
    10  C   -0.066697
    11  H    0.152668
    12  H    0.134620
    13  H    0.106351
    14  O   -0.637895
    15  H    0.408398
    16  O   -0.642199
    17  H    0.410120
    18  O   -0.689423
    19  H    0.427402
    20  O   -0.671228
    21  H    0.419728
    22  H    0.130504
    23  O   -0.611532
    24  H    0.431729
    25  O   -0.797511
    26  H    0.417657
    27  H    0.399199
    28  O   -0.802228
    29  H    0.431711
    30  H    0.397041
 Sum of Mulliken charges =   0.00000

 Dipole moment (field-independent basis, Debye):
    X=              6.6932    Y=              2.5225    Z=             -1.2179  Tot=              7.2557
 Quadrupole moment (field-independent basis, Debye-Ang):
   XX=            -89.0207   YY=            -72.4721   ZZ=            -85.3679
   XY=              4.1646   XZ=             -1.7689   YZ=             -4.4320

  Exact polarizability: 102.832   1.480 101.401   2.119  -2.724  79.852
 Approx polarizability: 137.533   1.077 130.074   1.989  -4.210 118.319

 ******    1 imaginary frequencies (negative Signs) ******

                      1                      2                      3
                      A                      A                      A
 Frequencies --    -41.6673                36.3391                48.3912
 Red. masses --      4.6055                 5.6630                 4.1358
 Frc consts  --      0.0047                 0.0044                 0.0057
 IR Inten    --      1.6703                 1.8329                 4.3714

                      4                      5                      6
                      A                      A                      A
 Frequencies --     81.4458                99.0680               122.9165
 Red. masses --      6.9590                 5.6312                 5.7959
 Frc consts  --      0.0272                 0.0326                 0.0516
 IR Inten    --      1.4474                 4.1501                 2.3220

                      7                      8                      9
                      A                      A                      A
 Frequencies --    130.0373               159.0880               173.9333
 Red. masses --      4.1505                 1.8988                 2.6352
 Frc consts  --      0.0414                 0.0283                 0.0470
 IR Inten    --      3.3024                11.5192                 5.5568

                     10                     11                     12
                      A                      A                      A
 Frequencies --    187.4785               196.2127               216.7915
 Red. masses --      5.7600                 3.9033                 2.3313
 Frc consts  --      0.1193                 0.0885                 0.0646
 IR Inten    --      8.7206                14.3099                57.6381

                     13                     14                     15
                      A                      A                      A
 Frequencies --    255.1292               282.0484               300.1606
 Red. masses --      1.4136                 2.0447                 1.6302
 Frc consts  --      0.0542                 0.0958                 0.0865
 IR Inten    --     64.5613                53.0241                66.6884

                     16                     17                     18
                      A                      A                      A
 Frequencies --    306.6164               317.8352               326.1574
 Red. masses --      1.3315                 3.3712                 2.5095
 Frc consts  --      0.0738                 0.2007                 0.1573
 IR Inten    --     68.3154                 7.0817                45.2917

                     19                     20                     21
                      A                      A                      A
 Frequencies --    333.7034               364.6530               380.5053
 Red. masses --      2.4544                 2.8547                 2.9692
 Frc consts  --      0.1610                 0.2236                 0.2533
 IR Inten    --     21.7370                28.4568               101.0550

                     22                     23                     24
                      A                      A                      A
 Frequencies --    400.2946               427.1953               451.8400
 Red. masses --      3.8624                 4.2497                 2.5992
 Frc consts  --      0.3646                 0.4569                 0.3126
 IR Inten    --     11.8859                 0.6406                42.6455

                     25                     26                     27
                      A                      A                      A
 Frequencies --    464.7652               494.8301               525.7123
 Red. masses --      1.3137                 4.6521                 1.1719
 Frc consts  --      0.1672                 0.6711                 0.1908
 IR Inten    --     53.9334                 7.3971               100.9735

                     28                     29                     30
                      A                      A                      A
 Frequencies --    550.8281               553.1094               577.1174
 Red. masses --      1.4230                 2.8051                 2.6109
 Frc consts  --      0.2544                 0.5056                 0.5124
 IR Inten    --    371.6001               143.8133                 8.9776

                     31                     32                     33
                      A                      A                      A
 Frequencies --    657.3109               710.9219               735.6698
 Red. masses --      1.1253                 4.7787                 1.4815
 Frc consts  --      0.2865                 1.4230                 0.4724
 IR Inten    --    146.4336                11.6794                 5.8686

                     34                     35                     36
                      A                      A                      A
 Frequencies --    766.4651               833.7232               876.7627
 Red. masses --      2.0777                 2.9007                 1.2014
 Frc consts  --      0.7192                 1.1879                 0.5441
 IR Inten    --    118.9019                88.7524               132.8995

                     37                     38                     39
                      A                      A                      A
 Frequencies --    905.1222               955.8983              1013.1383
 Red. masses --      1.9841                 4.2725                 3.5793
 Frc consts  --      0.9577                 2.3001                 2.1646
 IR Inten    --      7.6636               121.7207                28.8560

                     40                     41                     42
                      A                      A                      A
 Frequencies --   1050.0960              1063.1205              1073.5363
 Red. masses --      3.7091                 5.2226                 4.4720
 Frc consts  --      2.4098                 3.4778                 3.0366
 IR Inten    --     21.1659                26.2142               246.4159

                     43                     44                     45
                      A                      A                      A
 Frequencies --   1090.4110              1117.9446              1140.3509
 Red. masses --      2.5296                 2.5449                 3.4780
 Frc consts  --      1.7720                 1.8739                 2.6648
 IR Inten    --      7.5662                20.0309               127.6070

                     46                     47                     48
                      A                      A                      A
 Frequencies --   1147.5429              1156.2476              1211.0836
 Red. masses --      3.3074                 4.8965                 2.2354
 Frc consts  --      2.5661                 3.8569                 1.9317
 IR Inten    --     16.6310                57.8997               149.5381

                     49                     50                     51
                      A                      A                      A
 Frequencies --   1223.0738              1243.3648              1257.4233
 Red. masses --      1.3669                 1.1909                 1.2436
 Frc consts  --      1.2048                 1.0847                 1.1585
 IR Inten    --     45.0202                10.0483                51.5583

                     52                     53                     54
                      A                      A                      A
 Frequencies --   1285.8142              1301.5816              1339.1765
 Red. masses --      1.1441                 1.1488                 1.2036
 Frc consts  --      1.1145                 1.1467                 1.2717
 IR Inten    --     22.8071                 6.3429                28.3301

                     55                     56                     57
                      A                      A                      A
 Frequencies --   1367.8318              1380.9042              1391.2426
 Red. masses --      1.1695                 1.3454                 1.3405
 Frc consts  --      1.2892                 1.5116                 1.5287
 IR Inten    --      7.2092                26.0522                 5.1549

                     58                     59                     60
                      A                      A                      A
 Frequencies --   1396.5005              1403.7874              1410.9679
 Red. masses --      1.2820                 1.3016                 1.3679
 Frc consts  --      1.4731                 1.5112                 1.6045
 IR Inten    --     16.9941                 8.0027                22.9710

                     61                     62                     63
                      A                      A                      A
 Frequencies --   1440.1372              1454.4705              1473.0125
 Red. masses --      1.4401                 1.4496                 1.5104
 Frc consts  --      1.7598                 1.8067                 1.9309
 IR Inten    --     54.7378                16.8573                13.4329

                     64                     65                     66
                      A                      A                      A
 Frequencies --   1506.4713              1512.7392              1552.4377
 Red. masses --      1.2110                 1.2576                 1.0865
 Frc consts  --      1.6193                 1.6956                 1.5428
 IR Inten    --     74.4345                58.1352                 4.2737

                     67                     68                     69
                      A                      A                      A
 Frequencies --   1710.5010              1726.7207              2970.5745
 Red. masses --      1.0784                 1.0751                 1.0828
 Frc consts  --      1.8590                 1.8886                 5.6297
 IR Inten    --     79.9409                49.2290                28.4496

                     70                     71                     72
                      A                      A                      A
 Frequencies --   3013.1975              3022.0002              3036.6712
 Red. masses --      1.0618                 1.0811                 1.0851
 Frc consts  --      5.6801                 5.8171                 5.8954
 IR Inten    --     24.6080                 5.0584                63.6095

                     73                     74                     75
                      A                      A                      A
 Frequencies --   3060.2270              3064.3934              3081.5930
 Red. masses --      1.0923                 1.0924                 1.0921
 Frc consts  --      6.0272                 6.0437                 6.1102
 IR Inten    --     68.7084                47.6805                47.7306

                     76                     77                     78
                      A                      A                      A
 Frequencies --   3438.7078              3570.6909              3572.5652
 Red. masses --      1.0674                 1.0592                 1.0627
 Frc consts  --      7.4364                 7.9569                 7.9911
 IR Inten    --    455.7255               263.9590               426.4625

                     79                     80                     81
                      A                      A                      A
 Frequencies --   3655.7266              3675.7072              3720.9987
 Red. masses --      1.0519                 1.0648                 1.0661
 Frc consts  --      8.2826                 8.4761                 8.6967
 IR Inten    --    161.4494                45.1179                56.0782

                     82                     83                     84
                      A                      A                      A
 Frequencies --   3769.3866              3796.2587              3818.0555
 Red. masses --      1.0668                 1.0710                 1.0763
 Frc consts  --      8.9307                 9.0938                 9.2439
 IR Inten    --     31.2594                77.2590                63.3806

 - Thermochemistry -
 -------------------
 Temperature   298.150 Kelvin.  Pressure   1.00000 Atm.
 Atom     1 has atomic number  1 and mass   1.00783

 Molecular mass:   216.08452 amu.
 Principal axes and moments of inertia in atomic units:
                           1         2         3
     Eigenvalues --  2890.843743300.997074762.55902
           X            0.99998  -0.00313  -0.00552
           Y            0.00304   0.99987  -0.01608
           Z            0.00557   0.01606   0.99986
 This molecule is an asymmetric top.
 Rotational symmetry number  1.
 Warning -- assumption of classical behavior for rotation
           may cause significant error
 Rotational temperatures (Kelvin)      0.02996     0.02624     0.01819
 Rotational constants (GHZ):           0.62430     0.54673     0.37894
    1 imaginary frequencies ignored.
 Zero-point vibrational energy     651453.1 (Joules/Mol)
                                  155.70104 (Kcal/Mol)
 Warning -- explicit consideration of  29 degrees of freedom as
           vibrations may cause significant error
 Vibrational temperatures:     52.28    69.62   117.18   142.54   176.85
          (Kelvin)            187.09   228.89   250.25   269.74   282.31
                              311.91   367.07   405.80   431.86   441.15
                              457.29   469.27   480.12   524.65   547.46
                              575.93   614.64   650.10   668.69   711.95
                              756.38   792.52   795.80   830.34   945.72
                             1022.86  1058.46  1102.77  1199.54  1261.46
                             1302.27  1375.32  1457.68  1510.85  1529.59
                             1544.58  1568.86  1608.47  1640.71  1651.06
                             1663.58  1742.48  1759.73  1788.92  1809.15
                             1850.00  1872.68  1926.77  1968.00  1986.81
                             2001.69  2009.25  2019.73  2030.07  2072.03
                             2092.66  2119.33  2167.47  2176.49  2233.61
                             2461.03  2484.36  4273.99  4335.31  4347.98
                             4369.09  4402.98  4408.97  4433.72  4947.53
                             5137.42  5140.12  5259.77  5288.52  5353.68
                             5423.30  5461.96  5493.32

 Zero-point correction=                           0.248125 (Hartree/Particle)
 Thermal correction to Energy=                    0.265193
 Thermal correction to Enthalpy=                  0.266137
 Thermal correction to Gibbs Free Energy=         0.204290
 Sum of electronic and zero-point Energies=           -839.739511
 Sum of electronic and thermal Energies=              -839.722444
 Sum of electronic and thermal Enthalpies=            -839.721500
 Sum of electronic and thermal Free Energies=         -839.783347

                     E (Thermal)             CV                S
                      KCal/Mol        Cal/Mol-Kelvin    Cal/Mol-Kelvin
 Total                  166.411             63.252            130.168
 Electronic               0.000              0.000              0.000
 Translational            0.889              2.981             42.015
 Rotational               0.889              2.981             32.186
 Vibrational            164.633             57.291             55.968
 Vibration     1          0.594              1.982              5.449
 Vibration     2          0.595              1.978              4.882
 Vibration     3          0.600              1.962              3.856
 Vibration     4          0.604              1.950              3.473
 Vibration     5          0.610              1.930              3.054
 Vibration     6          0.612              1.923              2.945
 Vibration     7          0.621              1.892              2.561
 Vibration     8          0.627              1.875              2.393
 Vibration     9          0.632              1.857              2.253
 Vibration    10          0.636              1.845              2.168
 Vibration    11          0.646              1.815              1.986
 Vibration    12          0.666              1.754              1.695
 Vibration    13          0.681              1.707              1.521
 Vibration    14          0.693              1.673              1.416
 Vibration    15          0.697              1.661              1.381
 Vibration    16          0.704              1.640              1.321
 Vibration    17          0.710              1.623              1.279
 Vibration    18          0.715              1.608              1.242
 Vibration    19          0.738              1.545              1.102
 Vibration    20          0.750              1.512              1.037
 Vibration    21          0.766              1.469              0.962
 Vibration    22          0.789              1.411              0.868
 Vibration    23          0.811              1.357              0.790
 Vibration    24          0.822              1.328              0.752
 Vibration    25          0.850              1.261              0.671
 Vibration    26          0.881              1.193              0.597
 Vibration    27          0.906              1.138              0.542
 Vibration    28          0.908              1.133              0.538
 Vibration    29          0.934              1.081              0.491

 1\1\GINC-TATANKA\Freq\RB3LYP\6-31G(d)\C6H16O8\AALRAWAS\16-Jan-2017\0\\
 #N Geom=AllCheck Guess=TCheck SCRF=Check GenChk RB3LYP/6-31G(d) Freq\\
 Title Card Required\\0,1\H,0.008167554,0.5778711954,-0.6590805327\C,-0
 .5211103241,0.4541674769,0.2920479987\C,-2.2814815862,2.2111786191,0.6
 708533713\C,-2.7928689475,-0.3005079581,0.9155868148\C,-3.0846731364,1
 .1469620071,1.4292026562\O,-1.6970026875,-0.2714519824,-0.0535907508\C
 ,-0.7997199464,1.8868743182,0.8231514487\H,-2.7832859871,1.2083183994,
 2.4891668486\H,-0.5604700212,1.949287552,1.8942634122\C,0.4097516889,-

 Normal termination of Gaussian 09 at Mon Jan 16 22:09:52 2017.
