 Gaussian 09, Revision D.01,
 Gaussian 09:  ES64L-G09RevD.01 24-Apr-2013

 ----------------------------------------------------------------------
 # opt=(calcfc,ts,noeigentest,maxcycle=1000,cartesian) freq B3LYP/6-31G
 (d)
 ----------------------------------------------------------------------

 ------------------------
 Glo_A_ch2_GS_b3lyp_631Gd
 ------------------------
 Symbolic Z-matrix:
 Charge =  0 Multiplicity = 1

 SCF Done:  E(RB3LYP) =  -839.844870766     A.U. after   14 cycles
 SCF Done:  E(RB3LYP) =  -839.872858146     A.U. after   12 cycles
 SCF Done:  E(RB3LYP) =  -839.893323912     A.U. after   12 cycles
 SCF Done:  E(RB3LYP) =  -839.907794475     A.U. after   12 cycles
 SCF Done:  E(RB3LYP) =  -839.920066819     A.U. after   12 cycles
 SCF Done:  E(RB3LYP) =  -839.929417174     A.U. after   12 cycles
 SCF Done:  E(RB3LYP) =  -839.936688500     A.U. after   12 cycles
 SCF Done:  E(RB3LYP) =  -839.942032452     A.U. after   11 cycles
 SCF Done:  E(RB3LYP) =  -839.946737566     A.U. after   11 cycles
 SCF Done:  E(RB3LYP) =  -839.950556701     A.U. after   11 cycles
 SCF Done:  E(RB3LYP) =  -839.970311313     A.U. after   10 cycles
 SCF Done:  E(RB3LYP) =  -839.970319287     A.U. after    9 cycles
 SCF Done:  E(RB3LYP) =  -839.970320563     A.U. after    7 cycles
 SCF Done:  E(RB3LYP) =  -839.970321542     A.U. after    7 cycles
 SCF Done:  E(RB3LYP) =  -839.970322093     A.U. after    7 cycles
 SCF Done:  E(RB3LYP) =  -839.970322311     A.U. after    7 cycles
 SCF Done:  E(RB3LYP) =  -839.970322492     A.U. after    7 cycles
 SCF Done:  E(RB3LYP) =  -839.970322256     A.U. after    6 cycles
 SCF Done:  E(RB3LYP) =  -839.970321963     A.U. after    7 cycles
 Optimization completed.
    -- Stationary point found.
 Normal termination of Gaussian 09 at Sat Jan  7 20:34:07 2017.

 --------------------------------------------------------------------
 #N Geom=AllCheck Guess=TCheck SCRF=Check GenChk RB3LYP/6-31G(d) Freq
 --------------------------------------------------------------------

 Structure from the checkpoint file:  "/home/iawad/Gau-1763.chk"
 ------------------------
 Glo_A_ch2_GS_b3lyp_631Gd
 ------------------------
 Charge =  0 Multiplicity = 1

                         Standard orientation:
 ---------------------------------------------------------------------
 Center     Atomic      Atomic             Coordinates (Angstroms)
 Number     Number       Type             X           Y           Z
 ---------------------------------------------------------------------
      1          6           0        0.477909   -1.235457    0.291655
      2          8           0        0.460244   -0.337202   -0.999856
      3          6           0       -0.994068   -1.536661    0.615214
      4          6           0       -1.769946   -0.217453    0.800469
      5          6           0       -1.743401    0.626673   -0.493018
      6          6           0       -0.305182    0.916078   -0.956267
      7          1           0       -0.995651   -2.088245    1.565709
      8          1           0       -2.207032    1.593526   -0.284260
      9          1           0       -0.387124    1.200991   -2.009453
     10          1           0       -2.816059   -0.449582    1.026792
     11          8           0       -1.649368   -2.295653   -0.402736
     12          8           0       -1.224137    0.511664    1.902979
     13          8           0       -2.511013    0.031331   -1.524548
     14          1           0       -0.285124    0.213989    1.995448
     15          1           0       -1.087435   -3.052689   -0.632227
     16          1           0       -2.257962   -0.909858   -1.550853
     17          6           0        0.448223    2.024982   -0.151042
     18          8           0       -0.408005    2.890572    0.564482
     19          1           0        0.999670    2.661814   -0.853649
     20          1           0        1.176508    1.545295    0.511099
     21          1           0       -0.803386    2.337229    1.269814
     22          8           0        1.108378   -0.687486    1.316659
     23          1           0        2.481988   -0.565190    1.105577
     24          1           0        0.977364   -2.114786   -0.164534
     25          1           0        1.653160   -0.164621   -1.364877
     26          8           0        3.493675   -0.419619    0.740264
     27          1           0        3.992552   -1.233720    0.909582
     28          8           0        2.806474   -0.073703   -1.568373
     29          1           0        3.017747    0.831545   -1.850129
     30          1           0        3.249593   -0.233914   -0.547067
 ---------------------------------------------------------------------

 SCF Done:  E(RB3LYP) =  -839.970321963     A.U. after    1 cycles

 The electronic state is 1-A.
 Alpha  occ. eigenvalues --  -19.20375 -19.19389 -19.17820 -19.17095 -19.14479
 Alpha  occ. eigenvalues --  -19.12876 -19.12680 -19.11519 -10.29908 -10.25242
 Alpha  occ. eigenvalues --  -10.24596 -10.24119 -10.23029 -10.22994  -1.08127
 Alpha  occ. eigenvalues --   -1.05864  -1.04026  -1.02420  -1.01849  -1.00489
 Alpha  occ. eigenvalues --   -1.00302  -0.97839  -0.77234  -0.75895  -0.68516
 Alpha  occ. eigenvalues --   -0.65062  -0.63508  -0.58937  -0.57356  -0.56202
 Alpha  occ. eigenvalues --   -0.54959  -0.53597  -0.52172  -0.50891  -0.47958
 Alpha  occ. eigenvalues --   -0.47629  -0.46185  -0.45912  -0.44646  -0.43634
 Alpha  occ. eigenvalues --   -0.41888  -0.41619  -0.41170  -0.38814  -0.38526
 Alpha  occ. eigenvalues --   -0.38349  -0.36177  -0.35341  -0.34208  -0.33482
 Alpha  occ. eigenvalues --   -0.32727  -0.31014  -0.29720  -0.28876  -0.26986
 Alpha  occ. eigenvalues --   -0.25661  -0.25166  -0.24425
 Alpha virt. eigenvalues --    0.02892   0.04405   0.05868   0.07375   0.08807
 Alpha virt. eigenvalues --    0.11656   0.12404   0.12766   0.14481   0.15594
 Alpha virt. eigenvalues --    0.16302   0.17199   0.18247   0.18643   0.19937

 Mulliken charges:
               1
     1  C    0.314884
     2  O   -0.620451
     3  C    0.079830
     4  C    0.102550
     5  C    0.102151
     6  C    0.078038
     7  H    0.156054
     8  H    0.167154
     9  H    0.161643
    10  H    0.158791
    11  O   -0.637977
    12  O   -0.680189
    13  O   -0.654362
    14  H    0.438636
    15  H    0.403762
    16  H    0.420010
    17  C   -0.071001
    18  O   -0.633449
    19  H    0.124648
    20  H    0.150993
    21  H    0.418701
    22  O   -0.671905
    23  H    0.467470
    24  H    0.094498
    25  H    0.494576
    26  O   -0.839329
    27  H    0.406994
    28  O   -0.826723
    29  H    0.425233
    30  H    0.468769
 Sum of Mulliken charges =   0.00000

 Dipole moment (field-independent basis, Debye):
    X=              4.7283    Y=             -3.8353    Z=             -1.7295  Tot=              6.3291
 Quadrupole moment (field-independent basis, Debye-Ang):
   XX=            -82.2985   YY=            -80.9596   ZZ=            -88.3362
   XY=              0.4750   XZ=             -6.2424   YZ=             -5.0342

  Exact polarizability: 103.689  -0.495  96.625   0.237  -2.798  86.795
 Approx polarizability: 135.572  -2.660 132.782   3.367   0.817 133.237

 ******    1 imaginary frequencies (negative Signs) ******

                      1                      2                      3
                      A                      A                      A
 Frequencies --   -982.2472                52.9926                73.0869
 Red. masses --      1.1970                 5.1589                 5.4293
 Frc consts  --      0.6804                 0.0085                 0.0171
 IR Inten    --    646.2066                 1.2815                 2.4618

                      4                      5                      6
                      A                      A                      A
 Frequencies --    101.0053               125.1047               139.2628
 Red. masses --      3.8959                 4.4136                 4.2423
 Frc consts  --      0.0234                 0.0407                 0.0485
 IR Inten    --      8.0241                 2.1215                 3.5749

                      7                      8                      9
                      A                      A                      A
 Frequencies --    171.9268               208.1978               229.0166
 Red. masses --      6.3017                 4.3268                 3.5849
 Frc consts  --      0.1097                 0.1105                 0.1108
 IR Inten    --      0.3623                 9.2132                 4.5534

                     10                     11                     12
                      A                      A                      A
 Frequencies --    247.4545               250.2542               271.3207
 Red. masses --      1.7848                 4.6172                 5.4222
 Frc consts  --      0.0644                 0.1704                 0.2352
 IR Inten    --     65.7637                29.5802                 1.7581

                     13                     14                     15
                      A                      A                      A
 Frequencies --    278.8136               320.7491               357.2052
 Red. masses --      5.2209                 5.7912                 4.3277
 Frc consts  --      0.2391                 0.3510                 0.3253
 IR Inten    --      9.0001                29.1977                54.4789

                     16                     17                     18
                      A                      A                      A
 Frequencies --    393.1604               400.2468               417.6417
 Red. masses --      3.8266                 1.2927                 3.6365
 Frc consts  --      0.3485                 0.1220                 0.3737
 IR Inten    --     23.4360                91.6376                 7.5811

                     19                     20                     21
                      A                      A                      A
 Frequencies --    445.4313               485.0222               521.6991
 Red. masses --      5.2464                 5.0054                 2.2280
 Frc consts  --      0.6133                 0.6938                 0.3573
 IR Inten    --     18.9411               211.7209                 6.5133

                     22                     23                     24
                      A                      A                      A
 Frequencies --    535.7156               566.8599               570.5053
 Red. masses --      3.2850                 2.4199                 1.6944
 Frc consts  --      0.5555                 0.4581                 0.3249
 IR Inten    --     17.5272                87.1545                45.9218

                     25                     26                     27
                      A                      A                      A
 Frequencies --    587.2922               598.0682               614.7002
 Red. masses --      2.6009                 3.1585                 2.6950
 Frc consts  --      0.5285                 0.6656                 0.6000
 IR Inten    --    376.1939                82.8483                24.6073

                     28                     29                     30
                      A                      A                      A
 Frequencies --    635.6648               657.2027               709.8096
 Red. masses --      2.6007                 1.9195                 1.1231
 Frc consts  --      0.6192                 0.4885                 0.3334
 IR Inten    --     42.9883                29.3609                77.8944

                     31                     32                     33
                      A                      A                      A
 Frequencies --    748.6221               771.2028               798.0445
 Red. masses --      1.5638                 1.5663                 3.2980
 Frc consts  --      0.5164                 0.5488                 1.2375
 IR Inten    --    208.8702                67.9931               122.1931

                     34                     35                     36
                      A                      A                      A
 Frequencies --    806.6082               870.3929               941.6323
 Red. masses --      1.2052                 2.5534                 3.0549
 Frc consts  --      0.4620                 1.1397                 1.5959
 IR Inten    --    138.6759                15.8263               129.2903

                     37                     38                     39
                      A                      A                      A
 Frequencies --    962.5297              1018.6162              1049.9561
 Red. masses --      3.4928                 3.4978                 2.0050
 Frc consts  --      1.9066                 2.1383                 1.3023
 IR Inten    --     80.1049                 3.2566                44.1824

                     40                     41                     42
                      A                      A                      A
 Frequencies --   1072.8990              1077.9042              1097.1590
 Red. masses --      2.9609                 4.9605                 4.2661
 Frc consts  --      2.0081                 3.3958                 3.0257
 IR Inten    --     80.7691               124.7394                 9.9240

                     43                     44                     45
                      A                      A                      A
 Frequencies --   1114.7413              1122.5304              1137.1521
 Red. masses --      5.1505                 3.0065                 2.2152
 Frc consts  --      3.7710                 2.2321                 1.6877
 IR Inten    --     77.9164               120.8271                15.1787

                     46                     47                     48
                      A                      A                      A
 Frequencies --   1161.7641              1206.5871              1252.2419
 Red. masses --      1.1743                 1.1622                 1.1273
 Frc consts  --      0.9338                 0.9969                 1.0415
 IR Inten    --    114.8686                59.4763                15.1976

                     49                     50                     51
                      A                      A                      A
 Frequencies --   1266.9410              1282.4948              1311.4620
 Red. masses --      2.0141                 1.2700                 1.2433
 Frc consts  --      1.9048                 1.2308                 1.2599
 IR Inten    --    101.0038                21.0767               715.8884

                     52                     53                     54
                      A                      A                      A
 Frequencies --   1323.6570              1332.8073              1351.1028
 Red. masses --      1.2503                 1.2403                 1.2272
 Frc consts  --      1.2907                 1.2981                 1.3199
 IR Inten    --     72.5556                 4.2073                 3.7350

                     55                     56                     57
                      A                      A                      A
 Frequencies --   1360.1329              1371.5866              1380.1163
 Red. masses --      1.2679                 1.2354                 1.4217
 Frc consts  --      1.3820                 1.3694                 1.5955
 IR Inten    --     40.0315                11.8645                39.1475

                     58                     59                     60
                      A                      A                      A
 Frequencies --   1409.4984              1429.7252              1435.1313
 Red. masses --      1.3285                 1.5074                 1.3549
 Frc consts  --      1.5551                 1.8155                 1.6442
 IR Inten    --    123.4997                29.6266                67.9347

                     61                     62                     63
                      A                      A                      A
 Frequencies --   1452.8899              1482.2356              1500.8583
 Red. masses --      1.5837                 1.1948                 1.2000
 Frc consts  --      1.9697                 1.5466                 1.5926
 IR Inten    --    508.4742               179.2241                49.2943

                     64                     65                     66
                      A                      A                      A
 Frequencies --   1526.6518              1540.7760              1548.7440
 Red. masses --      1.1826                 1.0799                 1.1265
 Frc consts  --      1.6240                 1.5104                 1.5920
 IR Inten    --   1023.3562                10.5973                13.0993

                     67                     68                     69
                      A                      A                      A
 Frequencies --   1601.5131              1669.8255              1783.7701
 Red. masses --      1.0713                 1.0763                 1.0723
 Frc consts  --      1.6189                 1.7681                 2.0102
 IR Inten    --    808.6142              1219.6177               552.1453

                     70                     71                     72
                      A                      A                      A
 Frequencies --   1856.5469              2069.0991              2909.5432
 Red. masses --      1.0336                 1.0869                 1.0846
 Frc consts  --      2.0989                 2.7415                 5.4098
 IR Inten    --     49.5279              2654.6293               155.3185

                     73                     74                     75
                      A                      A                      A
 Frequencies --   3040.9434              3049.7878              3084.6883
 Red. masses --      1.0848                 1.0629                 1.0867
 Frc consts  --      5.9106                 5.8246                 6.0924
 IR Inten    --     37.8548                65.3584                42.4075

                     76                     77                     78
                      A                      A                      A
 Frequencies --   3086.6814              3107.9319              3122.7126
 Red. masses --      1.0887                 1.1014                 1.0861
 Frc consts  --      6.1111                 6.2682                 6.2401
 IR Inten    --      5.0398                37.0864                11.7111

                     79                     80                     81
                      A                      A                      A
 Frequencies --   3388.1579              3584.2553              3660.3796
 Red. masses --      1.0685                 1.0658                 1.0655
 Frc consts  --      7.2269                 8.0672                 8.4113
 IR Inten    --    263.7319               155.7181               139.5813

                     82                     83                     84
                      A                      A                      A
 Frequencies --   3737.2532              3773.1070              3787.7455
 Red. masses --      1.0662                 1.0650                 1.0652
 Frc consts  --      8.7738                 8.9326                 9.0039
 IR Inten    --     11.6617                56.5465                43.2512

 - Thermochemistry -
 -------------------
 Temperature   298.150 Kelvin.  Pressure   1.00000 Atm.
 Atom     1 has atomic number  6 and mass  12.00000

 Molecular mass:   216.08452 amu.
 Principal axes and moments of inertia in atomic units:
                           1         2         3
     Eigenvalues --  2262.517303297.341673797.52520
           X            0.99995   0.00078  -0.00953
           Y           -0.00105   0.99961  -0.02775
           Z            0.00950   0.02776   0.99957
 This molecule is an asymmetric top.
 Rotational symmetry number  1.
 Warning -- assumption of classical behavior for rotation
           may cause significant error
 Rotational temperatures (Kelvin)      0.03828     0.02627     0.02281
 Rotational constants (GHZ):           0.79767     0.54733     0.47524
    1 imaginary frequencies ignored.
 Zero-point vibrational energy     638786.4 (Joules/Mol)
                                  152.67361 (Kcal/Mol)
 Warning -- explicit consideration of  26 degrees of freedom as
           vibrations may cause significant error
 Vibrational temperatures:     76.24   105.16   145.32   180.00   200.37
          (Kelvin)            247.36   299.55   329.50   356.03   360.06
                              390.37   401.15   461.49   513.94   565.67
                              575.87   600.89   640.88   697.84   750.61
                              770.77   815.58   820.83   844.98   860.49
                              884.42   914.58   945.57  1021.26  1077.10
                             1109.59  1148.21  1160.53  1252.30  1354.80
                             1384.86  1465.56  1510.65  1543.66  1550.86
                             1578.57  1603.86  1615.07  1636.11  1671.52
                             1736.01  1801.69  1822.84  1845.22  1886.90
                             1904.44  1917.61  1943.93  1956.93  1973.40
                             1985.68  2027.95  2057.05  2064.83  2090.38
                             2132.60  2159.40  2196.51  2216.83  2228.29
                             2304.22  2402.50  2566.44  2671.15  2976.97
                             4186.18  4375.23  4387.96  4438.17  4441.04
                             4471.62  4492.88  4874.80  5156.94  5266.46
                             5377.07  5428.65  5449.71

 Zero-point correction=                           0.243301 (Hartree/Particle)
 Thermal correction to Energy=                    0.258073
 Thermal correction to Enthalpy=                  0.259017
 Thermal correction to Gibbs Free Energy=         0.202753
 Sum of electronic and zero-point Energies=           -839.727021
 Sum of electronic and thermal Energies=              -839.712249
 Sum of electronic and thermal Enthalpies=            -839.711305
 Sum of electronic and thermal Free Energies=         -839.767569

                     E (Thermal)             CV                S
                      KCal/Mol        Cal/Mol-Kelvin    Cal/Mol-Kelvin
 Total                  161.943             57.931            118.418
 Electronic               0.000              0.000              0.000
 Translational            0.889              2.981             42.015
 Rotational               0.889              2.981             31.716
 Vibrational            160.166             51.970             44.687
 Vibration     1          0.596              1.976              4.702
 Vibration     2          0.599              1.967              4.068
 Vibration     3          0.604              1.948              3.435
 Vibration     4          0.610              1.928              3.020
 Vibration     5          0.615              1.914              2.814
 Vibration     6          0.626              1.877              2.414
 Vibration     7          0.642              1.828              2.059
 Vibration     8          0.652              1.797              1.887
 Vibration     9          0.661              1.767              1.749
 Vibration    10          0.663              1.762              1.729
 Vibration    11          0.675              1.726              1.588
 Vibration    12          0.679              1.713              1.541
 Vibration    13          0.706              1.634              1.306
 Vibration    14          0.732              1.560              1.134
 Vibration    15          0.760              1.485              0.988
 Vibration    16          0.766              1.470              0.962
 Vibration    17          0.781              1.432              0.900
 Vibration    18          0.805              1.371              0.810
 Vibration    19          0.841              1.283              0.697
 Vibration    20          0.877              1.202              0.606
 Vibration    21          0.891              1.171              0.575
 Vibration    22          0.923              1.103              0.510
 Vibration    23          0.927              1.095              0.503
 Vibration    24          0.944              1.059              0.472
 Vibration    25          0.956              1.036              0.453
 Vibration    26          0.974              1.001              0.425

 Normal termination of Gaussian 09 at Sat Jan  7 20:37:56 2017.
