 Gaussian 09, Revision E.01,
 Gaussian 09:  ES64L-G09RevE.01 30-Nov-2015

 -------------------------------------
 # b3lyp/6-31g(d) irc=(calcfc,reverse)
 -------------------------------------

 --------------------------------
 glo_2w_beta_ts_boat4_B3LYP_631Gd
 --------------------------------
 Symbolic Z-matrix:
 Charge =  0 Multiplicity = 1

 SCF Done:  E(RB3LYP) =  -839.954485455     A.U. after   14 cycles
 SCF Done:  E(RB3LYP) =  -839.954870614     A.U. after   11 cycles
 SCF Done:  E(RB3LYP) =  -839.956084138     A.U. after   11 cycles
 SCF Done:  E(RB3LYP) =  -839.958121517     A.U. after   11 cycles
 SCF Done:  E(RB3LYP) =  -839.960845547     A.U. after   11 cycles
 SCF Done:  E(RB3LYP) =  -839.963995515     A.U. after   11 cycles
 SCF Done:  E(RB3LYP) =  -839.967199869     A.U. after   12 cycles
 SCF Done:  E(RB3LYP) =  -839.970039172     A.U. after   12 cycles
 SCF Done:  E(RB3LYP) =  -839.972261557     A.U. after   11 cycles
 SCF Done:  E(RB3LYP) =  -839.974063830     A.U. after   11 cycles
 SCF Done:  E(RB3LYP) =  -839.975690445     A.U. after   11 cycles

                          Input orientation:
 ---------------------------------------------------------------------
 Center     Atomic      Atomic             Coordinates (Angstroms)
 Number     Number       Type             X           Y           Z
 ---------------------------------------------------------------------
      1          8           0        0.629039   -0.211721   -0.972540
      2          6           0       -1.202373    0.841189    0.233673
      3          6           0       -1.098395   -1.686530    0.119741
      4          6           0       -1.941341   -0.435372   -0.167262
      5          6           0        0.414545   -1.386601    0.137411
      6          6           0        0.022297    1.049346   -0.666530
      7          1           0       -2.124486   -0.409269   -1.253112
      8          1           0       -0.347434    1.460911   -1.618223
      9          1           0       -0.890580    0.751980    1.282735
     10          1           0        0.984331   -2.167098   -0.381021
     11          6           0        1.017310    2.042737   -0.039673
     12          1           0        1.378740    1.642055    0.910661
     13          1           0        1.885192    2.198464   -0.697686
     14          1           0       -1.374945   -2.046722    1.119349
     15          8           0        0.889168   -1.027950    1.334348
     16          8           0        0.387968    3.292072    0.267189
     17          1           0        0.198304    3.738836   -0.573798
     18          8           0       -1.412086   -2.644634   -0.885467
     19          1           0       -1.179675   -3.522872   -0.547366
     20          8           0       -3.160722   -0.537194    0.547136
     21          1           0       -3.546794    0.355788    0.518970
     22          8           0       -2.122819    1.921290    0.088013
     23          1           0       -1.677934    2.693945    0.477553
     24          8           0        3.327022   -0.998608    1.123356
     25          1           0        3.370939   -0.655126    0.167462
     26          1           0        1.913136   -1.064792    1.328695
     27          1           0        3.691589   -0.315244    1.703940
     28          8           0        3.061611   -0.301187   -1.197112
     29          1           0        2.055365   -0.175750   -1.224950
     30          1           0        3.479703    0.518106   -1.495559
 ---------------------------------------------------------------------

 Alpha  occ. eigenvalues --  -19.17962 -19.16239 -19.15128 -19.15015 -19.14674
 Alpha  occ. eigenvalues --  -19.14581 -19.14262 -19.13043 -10.29310 -10.25194
 Alpha  occ. eigenvalues --  -10.24649 -10.23901 -10.23469 -10.22961  -1.06288
 Alpha  occ. eigenvalues --   -1.04887  -1.03264  -1.02413  -1.01902  -1.01113
 Alpha  occ. eigenvalues --   -0.99838  -0.98377  -0.77622  -0.76172  -0.69619
 Alpha  occ. eigenvalues --   -0.64359  -0.62546  -0.56501  -0.56047  -0.55221
 Alpha  occ. eigenvalues --   -0.54638  -0.53680  -0.52474  -0.51521  -0.49564
 Alpha  occ. eigenvalues --   -0.46779  -0.46207  -0.44443  -0.43532  -0.42633
 Alpha  occ. eigenvalues --   -0.42016  -0.41197  -0.39662  -0.38605  -0.37754
 Alpha  occ. eigenvalues --   -0.36310  -0.35831  -0.34746  -0.33519  -0.32114
 Alpha  occ. eigenvalues --   -0.31652  -0.30953  -0.29913  -0.29697  -0.27593
 Alpha  occ. eigenvalues --   -0.26695  -0.26334  -0.24890
 Alpha virt. eigenvalues --    0.03635   0.04304   0.06489   0.07583   0.08543
 Alpha virt. eigenvalues --    0.09309   0.11326   0.12826   0.13101   0.14275
 Alpha virt. eigenvalues --    0.15636   0.16448   0.17453   0.18087   0.20075

 Mulliken charges:
               1
     1  O   -0.612934
     2  C    0.062798
     3  C    0.120542
     4  C    0.148032
     5  C    0.273253
     6  C    0.151602
     7  H    0.143465
     8  H    0.133309
     9  H    0.152562
    10  H    0.148512
    11  C   -0.080167
    12  H    0.166449
    13  H    0.110904
    14  H    0.160009
    15  O   -0.622957
    16  O   -0.617260
    17  H    0.400761
    18  O   -0.625492
    19  H    0.395281
    20  O   -0.651428
    21  H    0.409037
    22  O   -0.669154
    23  H    0.408110
    24  O   -0.828837
    25  H    0.447717
    26  H    0.458164
    27  H    0.394103
    28  O   -0.837476
    29  H    0.466836
    30  H    0.394261
 Sum of Mulliken charges =  -0.00000

 Dipole moment (field-independent basis, Debye):
    X=              3.1880    Y=              3.4626    Z=             -0.4904  Tot=              4.7322
 Quadrupole moment (field-independent basis, Debye-Ang):
   XX=            -86.5694   YY=            -73.5866   ZZ=            -85.7513
   XY=              5.4486   XZ=             -0.4598   YZ=             -6.1661

  Exact polarizability:   0.000   0.000   0.000   0.000   0.000   0.000
 Approx polarizability: 129.342  -2.574 135.489  -0.110  -4.551 127.921

 Normal termination of Gaussian 09 at Sat Jan 14 00:50:19 2017.
