 Gaussian 09, Revision E.01,
 Gaussian 09:  ES64L-G09RevE.01 30-Nov-2015

 -------------------------------------
 # b3lyp/6-31g(d) irc=(calcfc,reverse)
 -------------------------------------

 --------------------------------
 glo_1w_beta_ts_boat4_B3LYP_631Gd
 --------------------------------
 Symbolic Z-matrix:
 Charge =  0 Multiplicity = 1

 SCF Done:  E(RB3LYP) =  -839.951039665     A.U. after   14 cycles
 SCF Done:  E(RB3LYP) =  -839.951465883     A.U. after   11 cycles
 SCF Done:  E(RB3LYP) =  -839.952602598     A.U. after   12 cycles
 SCF Done:  E(RB3LYP) =  -839.954142110     A.U. after   12 cycles
 SCF Done:  E(RB3LYP) =  -839.955725820     A.U. after   12 cycles
 SCF Done:  E(RB3LYP) =  -839.957158748     A.U. after   11 cycles
 SCF Done:  E(RB3LYP) =  -839.958464327     A.U. after   11 cycles
 SCF Done:  E(RB3LYP) =  -839.959690892     A.U. after   11 cycles
 SCF Done:  E(RB3LYP) =  -839.960867883     A.U. after   11 cycles
 SCF Done:  E(RB3LYP) =  -839.961994602     A.U. after   11 cycles
 SCF Done:  E(RB3LYP) =  -839.963022294     A.U. after   11 cycles
 SCF Done:  E(RB3LYP) =  -839.963094210     A.U. after   10 cycles

                          Input orientation:
 ---------------------------------------------------------------------
 Center     Atomic      Atomic             Coordinates (Angstroms)
 Number     Number       Type             X           Y           Z
 ---------------------------------------------------------------------
      1          8           0       -1.722491    0.338940    0.467336
      2          6           0        0.655682    0.407261   -0.154141
      3          6           0       -0.248851   -1.798939    0.827541
      4          6           0        0.983750   -1.024942    0.323927
      5          6           0       -1.532394   -1.518514    0.063270
      6          6           0       -0.508259    1.060832    0.620519
      7          1           0        1.634728   -0.913572    1.206092
      8          1           0       -0.268501    1.038058    1.690092
      9          1           0        0.388413    0.347742   -1.218872
     10          1           0       -2.455536   -1.685869    0.655648
     11          6           0       -0.802159    2.502475    0.187626
     12          1           0       -0.998289    2.537114   -0.889834
     13          1           0       -1.703621    2.856011    0.705107
     14          1           0       -0.033501   -2.864448    0.650746
     15          8           0       -1.548462   -1.617244   -1.177247
     16          8           0        0.298706    3.390286    0.399849
     17          1           0        0.426667    3.483425    1.357975
     18          8           0       -0.373133   -1.525967    2.220160
     19          1           0       -1.209499   -1.907708    2.530897
     20          8           0        1.598800   -1.795055   -0.681021
     21          1           0        2.475971   -1.393809   -0.881432
     22          8           0        1.849148    1.189423    0.023890
     23          1           0        1.605773    2.132394   -0.072164
     24          8           0       -2.957454    0.316170   -1.660347
     25          1           0       -2.214209    0.568251   -0.399853
     26          1           0       -2.569857   -0.615684   -1.710135
     27          1           0       -2.595519    0.783777   -2.428449
     28          8           0        3.924297   -0.290526   -1.009785
     29          1           0        4.495466   -0.470689   -0.247747
     30          1           0        3.339282    0.439463   -0.707861
 ---------------------------------------------------------------------

 Alpha  occ. eigenvalues --  -19.19178 -19.17448 -19.16184 -19.15728 -19.15575
 Alpha  occ. eigenvalues --  -19.14099 -19.12032 -19.11499 -10.28213 -10.26207
 Alpha  occ. eigenvalues --  -10.25570 -10.24246 -10.23783 -10.23279  -1.07069
 Alpha  occ. eigenvalues --   -1.05908  -1.03337  -1.02888  -1.02043  -1.00624
 Alpha  occ. eigenvalues --   -1.00073  -0.98980  -0.78239  -0.75444  -0.69957
 Alpha  occ. eigenvalues --   -0.65014  -0.63086  -0.56949  -0.55487  -0.55373
 Alpha  occ. eigenvalues --   -0.54399  -0.52814  -0.51785  -0.51134  -0.48775
 Alpha  occ. eigenvalues --   -0.47922  -0.45245  -0.44924  -0.44304  -0.43379
 Alpha  occ. eigenvalues --   -0.42127  -0.40499  -0.39647  -0.39170  -0.38772
 Alpha  occ. eigenvalues --   -0.37402  -0.36763  -0.35632  -0.34582  -0.33029
 Alpha  occ. eigenvalues --   -0.31245  -0.30812  -0.29326  -0.29180  -0.27996
 Alpha  occ. eigenvalues --   -0.27039  -0.24844  -0.23811
 Alpha virt. eigenvalues --    0.01485   0.03615   0.05406   0.06487   0.07717
 Alpha virt. eigenvalues --    0.09707   0.11934   0.12485   0.13454   0.14351
 Alpha virt. eigenvalues --    0.15452   0.15977   0.17248   0.17821   0.19144

 Mulliken charges:
               1
     1  O   -0.650635
     2  C    0.106859
     3  C    0.079553
     4  C    0.138571
     5  C    0.282976
     6  C    0.098190
     7  H    0.134949
     8  H    0.155836
     9  H    0.138761
    10  H    0.107941
    11  C   -0.088499
    12  H    0.152490
    13  H    0.164542
    14  H    0.169904
    15  O   -0.537704
    16  O   -0.618603
    17  H    0.408803
    18  O   -0.637124
    19  H    0.395145
    20  O   -0.668572
    21  H    0.424418
    22  O   -0.695496
    23  H    0.426777
    24  O   -0.817862
    25  H    0.462749
    26  H    0.448126
    27  H    0.400173
    28  O   -0.804249
    29  H    0.392620
    30  H    0.429363
 Sum of Mulliken charges =  -0.00000

 Dipole moment (field-independent basis, Debye):
    X=             -0.9475    Y=              3.6038    Z=              3.0743  Tot=              4.8308
 Quadrupole moment (field-independent basis, Debye-Ang):
   XX=            -85.8396   YY=            -81.0704   ZZ=            -81.2882
   XY=              2.6105   XZ=              4.7832   YZ=             -3.9958

  Exact polarizability:   0.000   0.000   0.000   0.000   0.000   0.000
 Approx polarizability: 132.021   1.722 133.630   1.354   7.358 140.023

 Normal termination of Gaussian 09 at Sat Jan 14 00:53:24 2017.
