 Gaussian 09, Revision E.01,
 Gaussian 09:  ES64L-G09RevE.01 30-Nov-2015

 -------------------------------------
 # b3lyp/6-31g(d) irc=(calcfc,reverse)
 -------------------------------------

 ---------------------------------
 glo_2w_alpha_ts_boat4_B3LYP_631Gd
 ---------------------------------
 Symbolic Z-matrix:
 Charge =  0 Multiplicity = 1

 SCF Done:  E(RB3LYP) =  -839.961546095     A.U. after   14 cycles
 SCF Done:  E(RB3LYP) =  -839.961805627     A.U. after   11 cycles
 SCF Done:  E(RB3LYP) =  -839.962485545     A.U. after   11 cycles
 SCF Done:  E(RB3LYP) =  -839.963393686     A.U. after   12 cycles
 SCF Done:  E(RB3LYP) =  -839.964315593     A.U. after   12 cycles
 SCF Done:  E(RB3LYP) =  -839.965182690     A.U. after   11 cycles
 SCF Done:  E(RB3LYP) =  -839.966008735     A.U. after   11 cycles
 SCF Done:  E(RB3LYP) =  -839.966808655     A.U. after   11 cycles
 SCF Done:  E(RB3LYP) =  -839.967584805     A.U. after   11 cycles
 SCF Done:  E(RB3LYP) =  -839.968321004     A.U. after   11 cycles
 SCF Done:  E(RB3LYP) =  -839.968348050     A.U. after   10 cycles
 SCF Done:  E(RB3LYP) =  -839.969088092     A.U. after   11 cycles

                          Input orientation:
 ---------------------------------------------------------------------
 Center     Atomic      Atomic             Coordinates (Angstroms)
 Number     Number       Type             X           Y           Z
 ---------------------------------------------------------------------
      1          8           0       -0.623615    0.359973    0.585650
      2          6           0        1.641635    0.211854   -0.246521
      3          6           0        0.232337   -1.912056   -0.200729
      4          6           0        1.557968   -1.247073    0.206520
      5          6           0       -0.918690   -0.960100   -0.553216
      6          6           0        0.594941    1.089873    0.465347
      7          1           0        1.609963   -1.273207    1.305458
      8          1           0        0.974636    1.271517    1.481535
      9          1           0        1.491201    0.252013   -1.337622
     10          6           0        0.380497    2.428422   -0.247979
     11          1           0        0.046275    2.258359   -1.276605
     12          1           0       -0.391296    3.021866    0.259489
     13          1           0        0.433977   -2.461291   -1.139147
     14          8           0        1.614897    3.147979   -0.347110
     15          1           0        1.807233    3.526056    0.525764
     16          8           0       -0.200376   -2.782358    0.815665
     17          1           0       -1.177218   -2.755390    0.747664
     18          8           0        2.624287   -1.985987   -0.368609
     19          1           0        3.422402   -1.449229   -0.222139
     20          8           0        2.950040    0.673256    0.071293
     21          1           0        3.000970    1.582607   -0.275470
     22          1           0       -0.766970   -0.365096   -1.468463
     23          8           0       -2.075505   -1.394712   -0.285205
     24          8           0       -3.835504    0.266418   -0.908814
     25          1           0       -3.188969   -0.507028   -0.765955
     26          1           0       -3.316158    1.156349    0.172766
     27          1           0       -4.719489   -0.093903   -0.744321
     28          8           0       -2.732802    1.602553    0.886274
     29          1           0       -1.494095    0.927506    0.733146
     30          1           0       -3.105166    1.336601    1.741339
 ---------------------------------------------------------------------

 Alpha  occ. eigenvalues --  -19.18538 -19.18410 -19.16817 -19.15524 -19.14702
 Alpha  occ. eigenvalues --  -19.13240 -19.12038 -19.12012 -10.28783 -10.25912
 Alpha  occ. eigenvalues --  -10.25630 -10.24601 -10.23076 -10.22780  -1.07296
 Alpha  occ. eigenvalues --   -1.05289  -1.03562  -1.02985  -1.02653  -1.00532
 Alpha  occ. eigenvalues --   -0.99758  -0.98290  -0.78782  -0.75529  -0.69216
 Alpha  occ. eigenvalues --   -0.64493  -0.62843  -0.56539  -0.55910  -0.55401
 Alpha  occ. eigenvalues --   -0.54106  -0.53497  -0.53081  -0.50828  -0.49758
 Alpha  occ. eigenvalues --   -0.48336  -0.46634  -0.45302  -0.44663  -0.42705
 Alpha  occ. eigenvalues --   -0.41869  -0.41545  -0.39944  -0.38693  -0.37618
 Alpha  occ. eigenvalues --   -0.37334  -0.36504  -0.34359  -0.33562  -0.33180
 Alpha  occ. eigenvalues --   -0.31625  -0.30993  -0.29797  -0.28660  -0.27540
 Alpha  occ. eigenvalues --   -0.26307  -0.26034  -0.23983
 Alpha virt. eigenvalues --    0.03000   0.04688   0.05109   0.07991   0.08348
 Alpha virt. eigenvalues --    0.09405   0.11094   0.12475   0.13434   0.14358
 Alpha virt. eigenvalues --    0.15437   0.16023   0.16808   0.17700   0.18855

 Mulliken charges:
               1
     1  O   -0.654914
     2  C    0.078017
     3  C    0.124817
     4  C    0.145388
     5  C    0.324166
     6  C    0.126879
     7  H    0.142898
     8  H    0.138767
     9  H    0.125325
    10  C   -0.090289
    11  H    0.167127
    12  H    0.164403
    13  H    0.146162
    14  O   -0.617352
    15  H    0.404834
    16  O   -0.652307
    17  H    0.406915
    18  O   -0.646341
    19  H    0.407891
    20  O   -0.666812
    21  H    0.412201
    22  H    0.121007
    23  O   -0.623124
    24  O   -0.832689
    25  H    0.448831
    26  H    0.446989
    27  H    0.395944
    28  O   -0.823269
    29  H    0.474776
    30  H    0.403758
 Sum of Mulliken charges =  -0.00000

 Dipole moment (field-independent basis, Debye):
    X=             -2.3035    Y=              4.6690    Z=              1.5876  Tot=              5.4430
 Quadrupole moment (field-independent basis, Debye-Ang):
   XX=            -72.8287   YY=            -92.1702   ZZ=            -81.3916
   XY=              8.7211   XZ=             -4.3774   YZ=              8.2017

  Exact polarizability:   0.000   0.000   0.000   0.000   0.000   0.000
 Approx polarizability: 150.159   8.343 130.688   0.612   2.938 120.457

 Normal termination of Gaussian 09 at Sat Jan 14 00:52:26 2017.
