 Gaussian 09, Revision E.01,
 Gaussian 09:  ES64L-G09RevE.01 30-Nov-2015

 -------------------------------------
 # b3lyp/6-31g(d) irc=(calcfc,reverse)
 -------------------------------------

 ---------------------------------
 glo_1w_alpha_ts_boat4_B3LYP_631Gd
 ---------------------------------
 Symbolic Z-matrix:
 Charge =  0 Multiplicity = 1

 SCF Done:  E(RB3LYP) =  -839.960668268     A.U. after   14 cycles
 SCF Done:  E(RB3LYP) =  -839.961034278     A.U. after   11 cycles
 SCF Done:  E(RB3LYP) =  -839.961971460     A.U. after   11 cycles
 SCF Done:  E(RB3LYP) =  -839.963181816     A.U. after   12 cycles
 SCF Done:  E(RB3LYP) =  -839.964401778     A.U. after   11 cycles
 SCF Done:  E(RB3LYP) =  -839.965558476     A.U. after   11 cycles
 SCF Done:  E(RB3LYP) =  -839.966657871     A.U. after   11 cycles
 SCF Done:  E(RB3LYP) =  -839.967718881     A.U. after   11 cycles
 SCF Done:  E(RB3LYP) =  -839.968740086     A.U. after   11 cycles
 SCF Done:  E(RB3LYP) =  -839.969693528     A.U. after   11 cycles
 SCF Done:  E(RB3LYP) =  -839.969744799     A.U. after   10 cycles
 SCF Done:  E(RB3LYP) =  -839.970712576     A.U. after   11 cycles

                          Input orientation:
 ---------------------------------------------------------------------
 Center     Atomic      Atomic             Coordinates (Angstroms)
 Number     Number       Type             X           Y           Z
 ---------------------------------------------------------------------
      1          8           0       -1.242375    0.476152   -0.700494
      2          6           0        1.041412    0.351921   -0.158913
      3          6           0       -0.388034   -1.727855    0.453289
      4          6           0        1.008779   -1.158202    0.187699
      5          6           0       -1.519161   -1.343811   -0.492110
      6          6           0       -0.271644    1.092267    0.134642
      7          1           0        1.554739   -1.267515    1.137201
      8          1           0       -0.532812    0.983145    1.195772
      9          1           0        1.208882    0.426632   -1.244236
     10          6           0       -0.236376    2.563167   -0.286070
     11          1           0        0.006498    2.626097   -1.350501
     12          1           0       -1.225207    3.022646   -0.141112
     13          1           0       -0.290182   -2.820503    0.327482
     14          8           0        0.776234    3.306829    0.396428
     15          1           0        0.523346    3.374562    1.331455
     16          8           0       -0.783301   -1.401192    1.773737
     17          1           0       -1.759574   -1.481889    1.737139
     18          8           0        1.588924   -1.936990   -0.839572
     19          1           0        2.532553   -1.660696   -0.898599
     20          8           0        2.136675    0.936949    0.559149
     21          1           0        2.066694    1.906993    0.446298
     22          1           0       -1.333552   -1.504449   -1.562301
     23          8           0       -2.678550   -1.465719   -0.009049
     24          8           0       -3.672988    0.715677   -0.550667
     25          1           0       -3.584720   -0.277245   -0.415102
     26          1           0       -2.202868    0.820426   -0.575776
     27          1           0       -4.058141    1.048596    0.274643
     28          8           0        4.082963   -0.719251   -0.531215
     29          1           0        4.543486   -1.172647    0.191062
     30          1           0        3.602851    0.018593   -0.092552
 ---------------------------------------------------------------------

 Alpha  occ. eigenvalues --  -19.19151 -19.18520 -19.16554 -19.16453 -19.14598
 Alpha  occ. eigenvalues --  -19.13928 -19.12375 -19.12228 -10.28427 -10.26104
 Alpha  occ. eigenvalues --  -10.25888 -10.24594 -10.23382 -10.23299  -1.07728
 Alpha  occ. eigenvalues --   -1.06092  -1.03584  -1.03196  -1.02283  -1.00599
 Alpha  occ. eigenvalues --   -0.99863  -0.99301  -0.78605  -0.75581  -0.69954
 Alpha  occ. eigenvalues --   -0.65138  -0.62425  -0.56877  -0.56136  -0.55421
 Alpha  occ. eigenvalues --   -0.53884  -0.53449  -0.52102  -0.51468  -0.49767
 Alpha  occ. eigenvalues --   -0.47991  -0.45974  -0.45280  -0.44970  -0.43671
 Alpha  occ. eigenvalues --   -0.42450  -0.40459  -0.39843  -0.39261  -0.38319
 Alpha  occ. eigenvalues --   -0.37308  -0.36309  -0.35919  -0.34822  -0.33556
 Alpha  occ. eigenvalues --   -0.31496  -0.31211  -0.29566  -0.29298  -0.28135
 Alpha  occ. eigenvalues --   -0.26790  -0.25544  -0.24575
 Alpha virt. eigenvalues --    0.01661   0.03859   0.05223   0.07111   0.09831
 Alpha virt. eigenvalues --    0.10505   0.10926   0.12375   0.14245   0.14523
 Alpha virt. eigenvalues --    0.15242   0.16464   0.17065   0.17486   0.18772

 Mulliken charges:
               1
     1  O   -0.650123
     2  C    0.114386
     3  C    0.077981
     4  C    0.121526
     5  C    0.312422
     6  C    0.081531
     7  H    0.142147
     8  H    0.151900
     9  H    0.145406
    10  C   -0.073547
    11  H    0.177431
    12  H    0.144616
    13  H    0.160230
    14  O   -0.617765
    15  H    0.407437
    16  O   -0.656298
    17  H    0.401843
    18  O   -0.677279
    19  H    0.428123
    20  O   -0.685904
    21  H    0.424550
    22  H    0.152255
    23  O   -0.598261
    24  O   -0.807826
    25  H    0.449527
    26  H    0.458981
    27  H    0.399623
    28  O   -0.809922
    29  H    0.395615
    30  H    0.429394
 Sum of Mulliken charges =  -0.00000

 Dipole moment (field-independent basis, Debye):
    X=             -0.8330    Y=              3.9020    Z=              2.8667  Tot=              4.9130
 Quadrupole moment (field-independent basis, Debye-Ang):
   XX=            -81.9350   YY=            -82.7623   ZZ=            -86.1626
   XY=             -5.8902   XZ=              0.5641   YZ=              4.2339

  Exact polarizability:   0.000   0.000   0.000   0.000   0.000   0.000
 Approx polarizability: 145.350   1.562 133.249  -2.940   4.667 125.830

 Normal termination of Gaussian 09 at Sat Jan 14 00:50:24 2017.
