 Gaussian 09, Revision E.01,
 Gaussian 09:  ES64L-G09RevE.01 30-Nov-2015

 -------------------------------------
 # b3lyp/6-31g(d) irc=(calcfc,forward)
 -------------------------------------

 ---------------------------------
 glo_2w_alpha_ts_boat4_B3LYP_631Gd
 ---------------------------------
 Symbolic Z-matrix:
 Charge =  0 Multiplicity = 1

 SCF Done:  E(RB3LYP) =  -839.961546095     A.U. after   14 cycles
 SCF Done:  E(RB3LYP) =  -839.961847569     A.U. after   11 cycles
 SCF Done:  E(RB3LYP) =  -839.962816359     A.U. after   11 cycles
 SCF Done:  E(RB3LYP) =  -839.964504741     A.U. after   11 cycles
 SCF Done:  E(RB3LYP) =  -839.966856475     A.U. after   11 cycles
 SCF Done:  E(RB3LYP) =  -839.969722491     A.U. after   11 cycles
 SCF Done:  E(RB3LYP) =  -839.972836685     A.U. after   12 cycles
 SCF Done:  E(RB3LYP) =  -839.975826913     A.U. after   12 cycles
 SCF Done:  E(RB3LYP) =  -839.978299269     A.U. after   12 cycles
 SCF Done:  E(RB3LYP) =  -839.980182818     A.U. after   11 cycles
 SCF Done:  E(RB3LYP) =  -839.981780250     A.U. after   11 cycles

                          Input orientation:
 ---------------------------------------------------------------------
 Center     Atomic      Atomic             Coordinates (Angstroms)
 Number     Number       Type             X           Y           Z
 ---------------------------------------------------------------------
      1          8           0       -0.643444    0.325930    0.543265
      2          6           0        1.645876    0.210692   -0.248096
      3          6           0        0.223092   -1.904754   -0.203762
      4          6           0        1.558419   -1.248394    0.204596
      5          6           0       -0.875363   -0.866198   -0.496396
      6          6           0        0.581749    1.064081    0.451192
      7          1           0        1.607999   -1.274090    1.303821
      8          1           0        0.931870    1.235970    1.480026
      9          1           0        1.500223    0.247532   -1.340794
     10          6           0        0.378716    2.420927   -0.247691
     11          1           0        0.045044    2.261549   -1.278153
     12          1           0       -0.391551    3.011572    0.264352
     13          1           0        0.407860   -2.454066   -1.142477
     14          8           0        1.614187    3.146593   -0.346022
     15          1           0        1.808668    3.516785    0.529818
     16          8           0       -0.203294   -2.780963    0.816560
     17          1           0       -1.175819   -2.792657    0.753816
     18          8           0        2.623995   -1.988092   -0.368497
     19          1           0        3.419549   -1.446114   -0.226994
     20          8           0        2.953201    0.672629    0.071169
     21          1           0        2.997729    1.584724   -0.269754
     22          1           0       -0.753108   -0.380551   -1.472419
     23          8           0       -2.097958   -1.372559   -0.288147
     24          8           0       -3.803583    0.273890   -0.881355
     25          1           0       -2.841277   -0.749777   -0.634616
     26          1           0       -3.516042    0.910954   -0.141439
     27          1           0       -4.690686   -0.050504   -0.668550
     28          8           0       -2.727500    1.583032    0.876341
     29          1           0       -1.849534    1.087644    0.801709
     30          1           0       -3.069804    1.357127    1.754453
 ---------------------------------------------------------------------

 Alpha  occ. eigenvalues --  -19.17963 -19.16812 -19.15333 -19.15230 -19.15207
 Alpha  occ. eigenvalues --  -19.15072 -19.13202 -19.12861 -10.30033 -10.25083
 Alpha  occ. eigenvalues --  -10.24958 -10.24162 -10.23434 -10.23038  -1.07111
 Alpha  occ. eigenvalues --   -1.04938  -1.03313  -1.02949  -1.01771  -1.00820
 Alpha  occ. eigenvalues --   -0.99701  -0.98926  -0.77749  -0.76167  -0.69670
 Alpha  occ. eigenvalues --   -0.64795  -0.62617  -0.57132  -0.55718  -0.55321
 Alpha  occ. eigenvalues --   -0.54135  -0.53539  -0.52658  -0.51169  -0.50429
 Alpha  occ. eigenvalues --   -0.49092  -0.45907  -0.44856  -0.43534  -0.42597
 Alpha  occ. eigenvalues --   -0.41721  -0.41034  -0.40144  -0.38891  -0.36891
 Alpha  occ. eigenvalues --   -0.36634  -0.36497  -0.34682  -0.33509  -0.32708
 Alpha  occ. eigenvalues --   -0.31671  -0.30974  -0.30114  -0.29902  -0.27878
 Alpha  occ. eigenvalues --   -0.26800  -0.26341  -0.24492
 Alpha virt. eigenvalues --    0.03672   0.05350   0.07546   0.08254   0.09125
 Alpha virt. eigenvalues --    0.09667   0.11288   0.11772   0.13689   0.14656
 Alpha virt. eigenvalues --    0.15601   0.16253   0.16767   0.17810   0.18761

 Mulliken charges:
               1
     1  O   -0.615348
     2  C    0.076720
     3  C    0.133082
     4  C    0.146041
     5  C    0.324721
     6  C    0.136664
     7  H    0.142605
     8  H    0.135372
     9  H    0.121435
    10  C   -0.084053
    11  H    0.161733
    12  H    0.160497
    13  H    0.144059
    14  O   -0.619534
    15  H    0.403656
    16  O   -0.648970
    17  H    0.413839
    18  O   -0.647732
    19  H    0.408953
    20  O   -0.669729
    21  H    0.411786
    22  H    0.136781
    23  O   -0.668671
    24  O   -0.826377
    25  H    0.455270
    26  H    0.444518
    27  H    0.397870
    28  O   -0.832759
    29  H    0.462872
    30  H    0.394702
 Sum of Mulliken charges =  -0.00000

 Dipole moment (field-independent basis, Debye):
    X=             -2.6759    Y=              3.8375    Z=              1.4944  Tot=              4.9113
 Quadrupole moment (field-independent basis, Debye-Ang):
   XX=            -72.4239   YY=            -91.8880   ZZ=            -81.5260
   XY=              9.6917   XZ=             -4.1953   YZ=              7.8617

  Exact polarizability:   0.000   0.000   0.000   0.000   0.000   0.000
 Approx polarizability: 143.006   7.180 128.538   0.756   4.391 120.174

 Normal termination of Gaussian 09 at Sat Jan 14 00:45:12 2017.
