 Gaussian 09, Revision E.01,
 Gaussian 09:  ES64L-G09RevE.01 30-Nov-2015

 -------------------------------------
 # b3lyp/6-31g(d) irc=(calcfc,forward)
 -------------------------------------

 --------------------------------
 glo_1w_beta_ts_boat4_B3LYP_631Gd
 --------------------------------
 Symbolic Z-matrix:
 Charge =  0 Multiplicity = 1

 SCF Done:  E(RB3LYP) =  -839.951039665     A.U. after   14 cycles
 SCF Done:  E(RB3LYP) =  -839.951494836     A.U. after   11 cycles
 SCF Done:  E(RB3LYP) =  -839.952829452     A.U. after   11 cycles
 SCF Done:  E(RB3LYP) =  -839.954870670     A.U. after   12 cycles
 SCF Done:  E(RB3LYP) =  -839.957292960     A.U. after   12 cycles
 SCF Done:  E(RB3LYP) =  -839.959695269     A.U. after   12 cycles
 SCF Done:  E(RB3LYP) =  -839.961797751     A.U. after   12 cycles
 SCF Done:  E(RB3LYP) =  -839.963635702     A.U. after   11 cycles
 SCF Done:  E(RB3LYP) =  -839.965330364     A.U. after   11 cycles
 SCF Done:  E(RB3LYP) =  -839.966946345     A.U. after   11 cycles
 SCF Done:  E(RB3LYP) =  -839.968505759     A.U. after   11 cycles

                          Input orientation:
 ---------------------------------------------------------------------
 Center     Atomic      Atomic             Coordinates (Angstroms)
 Number     Number       Type             X           Y           Z
 ---------------------------------------------------------------------
      1          8           0       -1.706455    0.278209    0.448014
      2          6           0        0.657570    0.408659   -0.151538
      3          6           0       -0.254893   -1.797564    0.822459
      4          6           0        0.984474   -1.024709    0.323488
      5          6           0       -1.537576   -1.387657    0.117884
      6          6           0       -0.512073    1.038241    0.624797
      7          1           0        1.632715   -0.917384    1.207822
      8          1           0       -0.249151    1.045928    1.693852
      9          1           0        0.387629    0.351319   -1.216180
     10          1           0       -2.451388   -1.678958    0.655031
     11          6           0       -0.807859    2.492303    0.186364
     12          1           0       -0.998333    2.531286   -0.891276
     13          1           0       -1.707746    2.851497    0.702128
     14          1           0       -0.063380   -2.862487    0.626450
     15          8           0       -1.554598   -1.602561   -1.197375
     16          8           0        0.296539    3.386182    0.400698
     17          1           0        0.425006    3.476910    1.359225
     18          8           0       -0.370731   -1.530117    2.217939
     19          1           0       -1.205783   -1.908507    2.535267
     20          8           0        1.598390   -1.795967   -0.681272
     21          1           0        2.474873   -1.393233   -0.883212
     22          8           0        1.851140    1.189070    0.022880
     23          1           0        1.602948    2.131924   -0.063662
     24          8           0       -2.956710    0.316945   -1.646084
     25          1           0       -2.496923    0.584444   -0.792481
     26          1           0       -2.283928   -1.012870   -1.584545
     27          1           0       -2.553733    0.826339   -2.364492
     28          8           0        3.923772   -0.290556   -1.009706
     29          1           0        4.494792   -0.469693   -0.247319
     30          1           0        3.338068    0.439746   -0.708418
 ---------------------------------------------------------------------

 Alpha  occ. eigenvalues --  -19.18979 -19.15913 -19.15900 -19.15807 -19.15101
 Alpha  occ. eigenvalues --  -19.14965 -19.14045 -19.11599 -10.30320 -10.25895
 Alpha  occ. eigenvalues --  -10.24824 -10.24595 -10.23979 -10.23311  -1.06935
 Alpha  occ. eigenvalues --   -1.05848  -1.03440  -1.02851  -1.01024  -1.00058
 Alpha  occ. eigenvalues --   -0.99286  -0.99023  -0.77356  -0.76253  -0.70410
 Alpha  occ. eigenvalues --   -0.65021  -0.63035  -0.56752  -0.55771  -0.54992
 Alpha  occ. eigenvalues --   -0.54778  -0.52627  -0.51932  -0.51112  -0.49762
 Alpha  occ. eigenvalues --   -0.47736  -0.46134  -0.44864  -0.44427  -0.42547
 Alpha  occ. eigenvalues --   -0.41133  -0.40878  -0.39980  -0.39224  -0.38523
 Alpha  occ. eigenvalues --   -0.37250  -0.35911  -0.35456  -0.33636  -0.32994
 Alpha  occ. eigenvalues --   -0.31067  -0.30172  -0.29782  -0.28522  -0.27594
 Alpha  occ. eigenvalues --   -0.27426  -0.26880  -0.24617
 Alpha virt. eigenvalues --    0.02536   0.04743   0.05436   0.06182   0.07701
 Alpha virt. eigenvalues --    0.10089   0.11644   0.12909   0.13957   0.14299
 Alpha virt. eigenvalues --    0.15752   0.16422   0.17306   0.18210   0.19353

 Mulliken charges:
               1
     1  O   -0.622032
     2  C    0.103346
     3  C    0.092351
     4  C    0.135332
     5  C    0.293769
     6  C    0.129437
     7  H    0.137076
     8  H    0.137251
     9  H    0.134941
    10  H    0.134914
    11  C   -0.082576
    12  H    0.145948
    13  H    0.161985
    14  H    0.168819
    15  O   -0.592440
    16  O   -0.620421
    17  H    0.408675
    18  O   -0.630890
    19  H    0.395564
    20  O   -0.670428
    21  H    0.425130
    22  O   -0.697221
    23  H    0.426589
    24  O   -0.830262
    25  H    0.450553
    26  H    0.450052
    27  H    0.397230
    28  O   -0.804895
    29  H    0.392463
    30  H    0.429743
 Sum of Mulliken charges =  -0.00000

 Dipole moment (field-independent basis, Debye):
    X=             -1.0422    Y=              2.9684    Z=              3.0374  Tot=              4.3730
 Quadrupole moment (field-independent basis, Debye-Ang):
   XX=            -86.1376   YY=            -80.5814   ZZ=            -81.7597
   XY=              3.6876   XZ=              4.3416   YZ=             -3.7472

  Exact polarizability:   0.000   0.000   0.000   0.000   0.000   0.000
 Approx polarizability: 131.976   2.741 138.856   1.362   7.654 132.825

 Normal termination of Gaussian 09 at Sat Jan 14 00:52:28 2017.
