 Gaussian 09, Revision E.01,
 Gaussian 09:  ES64L-G09RevE.01 30-Nov-2015

 -------------------------------------
 # b3lyp/6-31g(d) irc=(calcfc,forward)
 -------------------------------------

 ---------------------------------
 glo_1w_alpha_ts_boat4_B3LYP_631Gd
 ---------------------------------
 Symbolic Z-matrix:
 Charge =  0 Multiplicity = 1

 SCF Done:  E(RB3LYP) =  -839.960668268     A.U. after   14 cycles
 SCF Done:  E(RB3LYP) =  -839.961083320     A.U. after   11 cycles
 SCF Done:  E(RB3LYP) =  -839.962349673     A.U. after   11 cycles
 SCF Done:  E(RB3LYP) =  -839.964382425     A.U. after   11 cycles
 SCF Done:  E(RB3LYP) =  -839.966934471     A.U. after   12 cycles
 SCF Done:  E(RB3LYP) =  -839.969635681     A.U. after   12 cycles
 SCF Done:  E(RB3LYP) =  -839.972091411     A.U. after   12 cycles
 SCF Done:  E(RB3LYP) =  -839.974156189     A.U. after   11 cycles
 SCF Done:  E(RB3LYP) =  -839.975979907     A.U. after   11 cycles
 SCF Done:  E(RB3LYP) =  -839.977670517     A.U. after   10 cycles
 SCF Done:  E(RB3LYP) =  -839.979272324     A.U. after   10 cycles

                          Input orientation:
 ---------------------------------------------------------------------
 Center     Atomic      Atomic             Coordinates (Angstroms)
 Number     Number       Type             X           Y           Z
 ---------------------------------------------------------------------
      1          8           0       -1.255377    0.414322   -0.682384
      2          6           0        1.045262    0.351203   -0.156521
      3          6           0       -0.396652   -1.724720    0.447461
      4          6           0        1.009319   -1.159897    0.188329
      5          6           0       -1.465950   -1.205087   -0.510303
      6          6           0       -0.275658    1.066528    0.129476
      7          1           0        1.550292   -1.273845    1.140024
      8          1           0       -0.522985    0.985974    1.197784
      9          1           0        1.212078    0.425907   -1.241930
     10          6           0       -0.243651    2.552095   -0.291505
     11          1           0        0.001987    2.624206   -1.354514
     12          1           0       -1.229915    3.013643   -0.142486
     13          1           0       -0.323956   -2.814889    0.310504
     14          8           0        0.772601    3.300955    0.394675
     15          1           0        0.520458    3.364163    1.330461
     16          8           0       -0.782963   -1.401384    1.774221
     17          1           0       -1.755608   -1.485742    1.766663
     18          8           0        1.588691   -1.938523   -0.839136
     19          1           0        2.531501   -1.659029   -0.899702
     20          8           0        2.141153    0.935813    0.560309
     21          1           0        2.064946    1.905395    0.449515
     22          1           0       -1.324174   -1.505012   -1.551899
     23          8           0       -2.702170   -1.444360   -0.005085
     24          8           0       -3.655034    0.708760   -0.555831
     25          1           0       -3.333004   -0.707074   -0.311176
     26          1           0       -2.671757    0.894626   -0.603158
     27          1           0       -3.975771    1.086923    0.276419
     28          8           0        4.082662   -0.719138   -0.531172
     29          1           0        4.542325   -1.171223    0.192445
     30          1           0        3.601327    0.019584   -0.094050
 ---------------------------------------------------------------------

 Alpha  occ. eigenvalues --  -19.19093 -19.17121 -19.16078 -19.15591 -19.15346
 Alpha  occ. eigenvalues --  -19.14487 -19.14464 -19.12192 -10.30172 -10.26025
 Alpha  occ. eigenvalues --  -10.25273 -10.24053 -10.24038 -10.23378  -1.07442
 Alpha  occ. eigenvalues --   -1.05946  -1.03337  -1.02552  -1.00846  -1.00624
 Alpha  occ. eigenvalues --   -1.00351  -0.99414  -0.77491  -0.76481  -0.70413
 Alpha  occ. eigenvalues --   -0.65035  -0.63250  -0.56725  -0.55933  -0.55412
 Alpha  occ. eigenvalues --   -0.53930  -0.53274  -0.52273  -0.51320  -0.50200
 Alpha  occ. eigenvalues --   -0.47931  -0.46299  -0.45242  -0.44309  -0.42875
 Alpha  occ. eigenvalues --   -0.42521  -0.40475  -0.39902  -0.39465  -0.38143
 Alpha  occ. eigenvalues --   -0.37615  -0.36162  -0.35252  -0.34346  -0.33330
 Alpha  occ. eigenvalues --   -0.30965  -0.30716  -0.29708  -0.29349  -0.28765
 Alpha  occ. eigenvalues --   -0.27618  -0.26446  -0.25105
 Alpha virt. eigenvalues --    0.02701   0.04929   0.06296   0.07290   0.09949
 Alpha virt. eigenvalues --    0.10536   0.11168   0.12770   0.13790   0.14638
 Alpha virt. eigenvalues --    0.15272   0.16517   0.17163   0.17719   0.18675

 Mulliken charges:
               1
     1  O   -0.621065
     2  C    0.110458
     3  C    0.086563
     4  C    0.120896
     5  C    0.332519
     6  C    0.102503
     7  H    0.142073
     8  H    0.140176
     9  H    0.142049
    10  C   -0.072092
    11  H    0.176062
    12  H    0.143167
    13  H    0.159378
    14  O   -0.618015
    15  H    0.407358
    16  O   -0.652797
    17  H    0.408417
    18  O   -0.678650
    19  H    0.428455
    20  O   -0.687488
    21  H    0.423821
    22  H    0.168749
    23  O   -0.653533
    24  O   -0.816711
    25  H    0.452818
    26  H    0.446164
    27  H    0.394594
    28  O   -0.810562
    29  H    0.395062
    30  H    0.429633
 Sum of Mulliken charges =  -0.00000

 Dipole moment (field-independent basis, Debye):
    X=             -0.9825    Y=              3.3948    Z=              2.9735  Tot=              4.6186
 Quadrupole moment (field-independent basis, Debye-Ang):
   XX=            -83.1187   YY=            -82.3021   ZZ=            -85.8857
   XY=             -4.6144   XZ=              0.3047   YZ=              4.0505

  Exact polarizability:   0.000   0.000   0.000   0.000   0.000   0.000
 Approx polarizability: 137.953   1.389 135.171  -0.572   5.471 124.143

 Normal termination of Gaussian 09 at Sat Jan 14 00:50:08 2017.
