 Gaussian 09, Revision E.01,
 Gaussian 09:  ES64L-G09RevE.01 30-Nov-2015

 -------------------------------------
 # b3lyp/6-31g(d) irc=(calcfc,forward)
 -------------------------------------

 --------------------------------
 glo_2w_beta_ts_boat4_B3LYP_631Gd
 --------------------------------
 Symbolic Z-matrix:
 Charge =  0 Multiplicity = 1

 SCF Done:  E(RB3LYP) =  -839.954485455     A.U. after   14 cycles
 SCF Done:  E(RB3LYP) =  -839.954813044     A.U. after   11 cycles
 SCF Done:  E(RB3LYP) =  -839.955634609     A.U. after   11 cycles
 SCF Done:  E(RB3LYP) =  -839.956671595     A.U. after   11 cycles
 SCF Done:  E(RB3LYP) =  -839.957689943     A.U. after   11 cycles
 SCF Done:  E(RB3LYP) =  -839.958643682     A.U. after   11 cycles
 SCF Done:  E(RB3LYP) =  -839.959552725     A.U. after   11 cycles
 SCF Done:  E(RB3LYP) =  -839.960435453     A.U. after   11 cycles
 SCF Done:  E(RB3LYP) =  -839.961288079     A.U. after   11 cycles
 SCF Done:  E(RB3LYP) =  -839.961298247     A.U. after   10 cycles
 SCF Done:  E(RB3LYP) =  -839.962142157     A.U. after   11 cycles
 SCF Done:  E(RB3LYP) =  -839.962973511     A.U. after   11 cycles

                          Input orientation:
 ---------------------------------------------------------------------
 Center     Atomic      Atomic             Coordinates (Angstroms)
 Number     Number       Type             X           Y           Z
 ---------------------------------------------------------------------
      1          8           0        0.624889   -0.176988   -1.021604
      2          6           0       -1.199661    0.838837    0.233018
      3          6           0       -1.106927   -1.692647    0.117018
      4          6           0       -1.939900   -0.436003   -0.169074
      5          6           0        0.408557   -1.457553    0.229799
      6          6           0        0.021392    1.073679   -0.676027
      7          1           0       -2.126067   -0.408927   -1.254567
      8          1           0       -0.365333    1.507233   -1.610271
      9          1           0       -0.883075    0.747305    1.278744
     10          1           0        0.994278   -2.168296   -0.382170
     11          6           0        1.019800    2.046552   -0.039127
     12          1           0        1.377388    1.637807    0.909219
     13          1           0        1.889280    2.201323   -0.695119
     14          1           0       -1.407016   -2.048642    1.111889
     15          8           0        0.860811   -1.029193    1.326380
     16          8           0        0.388076    3.291996    0.267909
     17          1           0        0.202871    3.742164   -0.572247
     18          8           0       -1.413562   -2.646602   -0.889611
     19          1           0       -1.179565   -3.524408   -0.552093
     20          8           0       -3.160032   -0.536205    0.546775
     21          1           0       -3.548356    0.355729    0.516455
     22          8           0       -2.120350    1.920182    0.086921
     23          1           0       -1.680290    2.691868    0.483650
     24          8           0        3.343501   -1.003684    1.154079
     25          1           0        3.340703   -0.550599   -0.252432
     26          1           0        2.337459   -1.072148    1.343199
     27          1           0        3.682019   -0.355272    1.788616
     28          8           0        3.078692   -0.295726   -1.210192
     29          1           0        1.653020   -0.126332   -1.168557
     30          1           0        3.586853    0.489868   -1.457241
 ---------------------------------------------------------------------

 Alpha  occ. eigenvalues --  -19.18256 -19.17963 -19.15943 -19.15355 -19.14408
 Alpha  occ. eigenvalues --  -19.14112 -19.13079 -19.11347 -10.27984 -10.25650
 Alpha  occ. eigenvalues --  -10.25456 -10.23756 -10.23284 -10.23093  -1.06629
 Alpha  occ. eigenvalues --   -1.05042  -1.03338  -1.02255  -1.02020  -1.01116
 Alpha  occ. eigenvalues --   -0.99865  -0.98453  -0.78517  -0.75481  -0.69241
 Alpha  occ. eigenvalues --   -0.63919  -0.62652  -0.56380  -0.56158  -0.55347
 Alpha  occ. eigenvalues --   -0.53769  -0.53474  -0.52626  -0.51795  -0.48542
 Alpha  occ. eigenvalues --   -0.46892  -0.45905  -0.44855  -0.43426  -0.42565
 Alpha  occ. eigenvalues --   -0.42250  -0.41435  -0.39677  -0.38683  -0.38120
 Alpha  occ. eigenvalues --   -0.36667  -0.36021  -0.34923  -0.34322  -0.32667
 Alpha  occ. eigenvalues --   -0.31601  -0.30397  -0.29976  -0.28484  -0.27651
 Alpha  occ. eigenvalues --   -0.26448  -0.25776  -0.23653
 Alpha virt. eigenvalues --    0.02716   0.04110   0.04414   0.07810   0.08321
 Alpha virt. eigenvalues --    0.09058   0.11094   0.12638   0.13249   0.14154
 Alpha virt. eigenvalues --    0.15183   0.16472   0.17469   0.17785   0.19661

 Mulliken charges:
               1
     1  O   -0.647844
     2  C    0.065486
     3  C    0.113378
     4  C    0.145510
     5  C    0.270808
     6  C    0.139538
     7  H    0.143092
     8  H    0.137448
     9  H    0.159034
    10  H    0.125371
    11  C   -0.087731
    12  H    0.177627
    13  H    0.117965
    14  H    0.161020
    15  O   -0.577634
    16  O   -0.615449
    17  H    0.401442
    18  O   -0.627065
    19  H    0.395099
    20  O   -0.650229
    21  H    0.408456
    22  O   -0.667515
    23  H    0.408871
    24  O   -0.836980
    25  H    0.451100
    26  H    0.453190
    27  H    0.391303
    28  O   -0.834281
    29  H    0.481368
    30  H    0.397621
 Sum of Mulliken charges =  -0.00000

 Dipole moment (field-independent basis, Debye):
    X=              3.2528    Y=              3.8626    Z=             -0.7975  Tot=              5.1123
 Quadrupole moment (field-independent basis, Debye-Ang):
   XX=            -85.4627   YY=            -73.6148   ZZ=            -85.8897
   XY=              5.6547   XZ=             -1.0893   YZ=             -6.0229

  Exact polarizability:   0.000   0.000   0.000   0.000   0.000   0.000
 Approx polarizability: 132.631  -2.464 134.219   1.847  -2.511 133.495

 Normal termination of Gaussian 09 at Sat Jan 14 00:56:23 2017.
