 Gaussian 09, Revision E.01,
 Gaussian 09:  ES64L-G09RevE.01 30-Nov-2015

 -------------------------
 # b3lyp/6-31g(d) opt freq
 -------------------------

 -----------------------------------
 glo_1w_alpha_ircf_boat3_B3LYP_631Gd
 -----------------------------------
 Symbolic Z-matrix:
 Charge =  0 Multiplicity = 1

 SCF Done:  E(RB3LYP) =  -839.965029712     A.U. after   14 cycles
 SCF Done:  E(RB3LYP) =  -839.969050145     A.U. after   14 cycles
 SCF Done:  E(RB3LYP) =  -839.975826367     A.U. after   14 cycles
 SCF Done:  E(RB3LYP) =  -839.976486716     A.U. after   13 cycles
 SCF Done:  E(RB3LYP) =  -839.982820199     A.U. after   13 cycles
 SCF Done:  E(RB3LYP) =  -839.984569150     A.U. after   12 cycles
 SCF Done:  E(RB3LYP) =  -839.985972558     A.U. after   13 cycles
 SCF Done:  E(RB3LYP) =  -839.986921377     A.U. after   13 cycles
 SCF Done:  E(RB3LYP) =  -839.987646071     A.U. after   13 cycles
 SCF Done:  E(RB3LYP) =  -839.986745847     A.U. after   16 cycles
 SCF Done:  E(RB3LYP) =  -839.997821901     A.U. after   10 cycles
 SCF Done:  E(RB3LYP) =  -839.997827801     A.U. after    8 cycles
 SCF Done:  E(RB3LYP) =  -839.997834793     A.U. after    8 cycles
 SCF Done:  E(RB3LYP) =  -839.997839441     A.U. after    8 cycles
 SCF Done:  E(RB3LYP) =  -839.997842242     A.U. after    8 cycles
 SCF Done:  E(RB3LYP) =  -839.997843261     A.U. after    7 cycles
 SCF Done:  E(RB3LYP) =  -839.997844135     A.U. after    8 cycles
 SCF Done:  E(RB3LYP) =  -839.997844619     A.U. after    7 cycles
 SCF Done:  E(RB3LYP) =  -839.997844800     A.U. after    7 cycles
 Optimization completed.
    -- Stationary point found.
 Normal termination of Gaussian 09 at Mon Jan 16 00:45:25 2017.

 --------------------------------------------------------------------
 #N Geom=AllCheck Guess=TCheck SCRF=Check GenChk RB3LYP/6-31G(d) Freq
 --------------------------------------------------------------------

 Structure from the checkpoint file:  "/scratch/10464842.yak.local/Gau-26415.chk"
 -----------------------------------
 glo_1w_alpha_ircf_boat3_B3LYP_631Gd
 -----------------------------------
 Charge =  0 Multiplicity = 1

                         Standard orientation:
 ---------------------------------------------------------------------
 Center     Atomic      Atomic             Coordinates (Angstroms)
 Number     Number       Type             X           Y           Z
 ---------------------------------------------------------------------
      1          6           0       -0.365437   -0.395520    0.811087
      2          6           0        1.253879    1.220558   -0.517043
      3          8           0        0.191306   -1.646760   -1.286230
      4          6           0        2.488256    1.217951    0.365046
      5          6           0       -0.737564   -1.481301   -0.226799
      6          6           0       -0.052139    1.035498    0.308642
      7          1           0        0.049527    1.653484    1.215997
      8          1           0        1.326163    0.444814   -1.287747
      9          1           0       -0.808039   -2.413751    0.365985
     10          1           0       -1.246289   -0.293816    1.458556
     11          6           0       -2.087676   -1.271014   -0.927053
     12          1           0       -2.263620   -2.122665   -1.595579
     13          1           0       -2.057530   -0.357599   -1.518743
     14          8           0       -3.191347   -1.117928   -0.018256
     15          1           0       -3.234270   -1.901439    0.552179
     16          8           0        1.245634    2.523238   -1.081453
     17          1           0        0.296720    2.708813   -1.230079
     18          8           0       -1.077866    1.570488   -0.518911
     19          1           0       -1.885282    1.723387    0.033626
     20          8           0        0.683645   -0.824321    1.675318
     21          1           0        1.335023   -1.346511    1.164512
     22          1           0        2.581828    2.126398    0.990543
     23          8           0        3.369889    0.375653    0.376876
     24          8           0        2.573977   -2.170878   -0.002732
     25          1           0        3.040820   -1.301522   -0.055423
     26          1           0        1.005404   -2.062976   -0.940218
     27          1           0        3.191048   -2.792660    0.410379
     28          8           0       -3.387051    1.481061    0.909232
     29          1           0       -4.125550    1.922733    0.463287
     30          1           0       -3.467364    0.531859    0.658687
 ---------------------------------------------------------------------

 SCF Done:  E(RB3LYP) =  -839.997844800     A.U. after    1 cycles

 The electronic state is 1-A.
 Alpha  occ. eigenvalues --  -19.18133 -19.17384 -19.17141 -19.15777 -19.14346
 Alpha  occ. eigenvalues --  -19.13754 -19.13643 -19.13406 -10.28889 -10.24076
 Alpha  occ. eigenvalues --  -10.24059 -10.23663 -10.23566 -10.23252  -1.06529
 Alpha  occ. eigenvalues --   -1.04744  -1.03445  -1.03218  -1.01675  -1.01364
 Alpha  occ. eigenvalues --   -1.00142  -0.99555  -0.76839  -0.74643  -0.69236
 Alpha  occ. eigenvalues --   -0.64175  -0.60554  -0.58149  -0.55349  -0.54399
 Alpha  occ. eigenvalues --   -0.53832  -0.51752  -0.50626  -0.50013  -0.49714
 Alpha  occ. eigenvalues --   -0.46867  -0.45852  -0.44783  -0.44103  -0.42195
 Alpha  occ. eigenvalues --   -0.42022  -0.40801  -0.40204  -0.39382  -0.38385
 Alpha  occ. eigenvalues --   -0.36465  -0.36079  -0.34883  -0.34459  -0.32856
 Alpha  occ. eigenvalues --   -0.32286  -0.31178  -0.29422  -0.28902  -0.27523
 Alpha  occ. eigenvalues --   -0.27002  -0.25758  -0.24561
 Alpha virt. eigenvalues --   -0.03975   0.03882   0.05235   0.07244   0.10106
 Alpha virt. eigenvalues --    0.10710   0.12728   0.13840   0.15426   0.15779
 Alpha virt. eigenvalues --    0.16510   0.17885   0.18130   0.18629   0.18765

 Mulliken charges:
               1
     1  C    0.113191
     2  C    0.064956
     3  O   -0.660132
     4  C    0.282068
     5  C    0.067828
     6  C    0.096610
     7  H    0.132536
     8  H    0.166328
     9  H    0.109483
    10  H    0.126548
    11  C   -0.058020
    12  H    0.148387
    13  H    0.191321
    14  O   -0.639305
    15  H    0.405822
    16  O   -0.659344
    17  H    0.420880
    18  O   -0.696067
    19  H    0.437595
    20  O   -0.679785
    21  H    0.415819
    22  H    0.141581
    23  O   -0.434744
    24  O   -0.820110
    25  H    0.443526
    26  H    0.441527
    27  H    0.413400
    28  O   -0.814362
    29  H    0.400195
    30  H    0.442269
 Sum of Mulliken charges =  -0.00000

 Dipole moment (field-independent basis, Debye):
    X=             -2.3766    Y=             -2.6978    Z=              0.8711  Tot=              3.6994
 Quadrupole moment (field-independent basis, Debye-Ang):
   XX=            -69.5743   YY=            -75.0712   ZZ=            -92.4870
   XY=             -7.3665   XZ=              2.7294   YZ=             -2.1525

  Exact polarizability: 112.957  -5.081 100.711   1.955   0.185  77.191
 Approx polarizability: 145.864 -13.452 137.067   1.041  -2.515 117.067

                      1                      2                      3
                      A                      A                      A
 Frequencies --     46.0457                59.1889                71.5281
 Red. masses --      5.6789                 6.4488                 5.8947
 Frc consts  --      0.0071                 0.0133                 0.0178
 IR Inten    --      0.5374                 8.2206                 1.5911

                      4                      5                      6
                      A                      A                      A
 Frequencies --     96.2653               114.4640               127.3117
 Red. masses --      5.1957                 5.7736                 9.0861
 Frc consts  --      0.0284                 0.0446                 0.0868
 IR Inten    --      7.4643                 6.9227                 6.5922

                      7                      8                      9
                      A                      A                      A
 Frequencies --    153.0886               159.7453               184.2315
 Red. masses --      3.5420                 4.1231                 5.6230
 Frc consts  --      0.0489                 0.0620                 0.1124
 IR Inten    --     12.9521                 9.5685                27.0262

                     10                     11                     12
                      A                      A                      A
 Frequencies --    207.0432               214.5413               227.8931
 Red. masses --      6.6242                 5.3997                 2.8408
 Frc consts  --      0.1673                 0.1464                 0.0869
 IR Inten    --     10.9169                 9.0073                20.3152

                     13                     14                     15
                      A                      A                      A
 Frequencies --    244.5086               251.5923               263.9095
 Red. masses --      2.5298                 2.8051                 3.1449
 Frc consts  --      0.0891                 0.1046                 0.1291
 IR Inten    --     16.5490                27.2452                22.9175

                     16                     17                     18
                      A                      A                      A
 Frequencies --    297.2146               303.7173               322.3555
 Red. masses --      1.5287                 3.6586                 1.8296
 Frc consts  --      0.0796                 0.1988                 0.1120
 IR Inten    --     52.7734                13.5558                87.4180

                     19                     20                     21
                      A                      A                      A
 Frequencies --    341.7117               348.8460               391.4803
 Red. masses --      3.9137                 1.4547                 3.5271
 Frc consts  --      0.2693                 0.1043                 0.3185
 IR Inten    --     23.8163               151.0507                10.2832

                     22                     23                     24
                      A                      A                      A
 Frequencies --    415.2250               418.7011               436.5751
 Red. masses --      1.4936                 1.8883                 1.5007
 Frc consts  --      0.1517                 0.1950                 0.1685
 IR Inten    --     81.9602                16.7725                12.3254

                     25                     26                     27
                      A                      A                      A
 Frequencies --    462.4955               482.9909               501.2091
 Red. masses --      2.6578                 4.1266                 5.9653
 Frc consts  --      0.3350                 0.5672                 0.8829
 IR Inten    --     49.5235                11.5679                 4.1978

                     28                     29                     30
                      A                      A                      A
 Frequencies --    540.4575               559.8368               586.8189
 Red. masses --      1.2620                 2.3340                 1.2088
 Frc consts  --      0.2172                 0.4310                 0.2453
 IR Inten    --     63.6381                81.7153               109.3461

                     31                     32                     33
                      A                      A                      A
 Frequencies --    610.4742               692.4765               744.4116
 Red. masses --      3.3692                 1.0994                 1.3339
 Frc consts  --      0.7398                 0.3106                 0.4355
 IR Inten    --     17.9326                94.2274               141.2671

                     34                     35                     36
                      A                      A                      A
 Frequencies --    768.2846               776.8253               858.0730
 Red. masses --      2.1949                 2.6269                 1.0563
 Frc consts  --      0.7633                 0.9340                 0.4582
 IR Inten    --     51.5062                 3.7598               220.6105

                     37                     38                     39
                      A                      A                      A
 Frequencies --    921.1595               955.2403              1011.3516
 Red. masses --      2.6920                 1.0790                 1.8492
 Frc consts  --      1.3459                 0.5801                 1.1144
 IR Inten    --      4.0017               103.1399                28.6530

                     40                     41                     42
                      A                      A                      A
 Frequencies --   1018.4592              1024.5203              1064.0463
 Red. masses --      2.6010                 2.6927                 3.3543
 Frc consts  --      1.5895                 1.6652                 2.2376
 IR Inten    --    107.9702                81.4653                85.6431

                     43                     44                     45
                      A                      A                      A
 Frequencies --   1077.1942              1094.4338              1104.3231
 Red. masses --      4.1086                 4.7965                 4.4303
 Frc consts  --      2.8089                 3.3849                 3.1833
 IR Inten    --      9.5884               153.0138                12.0405

                     46                     47                     48
                      A                      A                      A
 Frequencies --   1112.1489              1124.9412              1170.2466
 Red. masses --      3.9194                 3.5126                 2.3838
 Frc consts  --      2.8562                 2.6190                 1.9235
 IR Inten    --     39.4228                11.2395                26.0945

                     49                     50                     51
                      A                      A                      A
 Frequencies --   1192.0441              1251.0612              1304.6261
 Red. masses --      1.2812                 1.2353                 1.1694
 Frc consts  --      1.0726                 1.1392                 1.1727
 IR Inten    --     16.4395                16.3633                20.6257

                     52                     53                     54
                      A                      A                      A
 Frequencies --   1333.0708              1339.1934              1351.5970
 Red. masses --      1.2611                 1.1650                 1.1571
 Frc consts  --      1.3204                 1.2311                 1.2455
 IR Inten    --     45.3519                17.3477                22.7640

                     55                     56                     57
                      A                      A                      A
 Frequencies --   1372.8506              1377.5573              1393.4946
 Red. masses --      1.1687                 1.2102                 1.2296
 Frc consts  --      1.2977                 1.3531                 1.4068
 IR Inten    --     56.8944                27.5420                29.5577

                     58                     59                     60
                      A                      A                      A
 Frequencies --   1414.8929              1419.0435              1428.0631
 Red. masses --      1.4360                 1.1767                 1.2085
 Frc consts  --      1.6938                 1.3960                 1.4521
 IR Inten    --     20.9204                28.4678                20.5841

                     61                     62                     63
                      A                      A                      A
 Frequencies --   1453.8869              1463.0188              1495.0893
 Red. masses --      1.4510                 1.3424                 1.2778
 Frc consts  --      1.8071                 1.6930                 1.6828
 IR Inten    --     38.8728                13.4632                13.0125

                     64                     65                     66
                      A                      A                      A
 Frequencies --   1503.7039              1532.5326              1712.8578
 Red. masses --      1.2671                 1.0791                 1.0870
 Frc consts  --      1.6881                 1.4933                 1.8790
 IR Inten    --     50.7942                 7.5873                89.0775

                     67                     68                     69
                      A                      A                      A
 Frequencies --   1722.6716              1799.5415              2938.1718
 Red. masses --      1.0744                 9.0185                 1.0826
 Frc consts  --      1.8786                17.2072                 5.5063
 IR Inten    --     66.9371               190.4211                68.7056

                     70                     71                     72
                      A                      A                      A
 Frequencies --   2985.2786              2994.6726              3047.2755
 Red. masses --      1.0843                 1.0860                 1.0845
 Frc consts  --      5.6933                 5.7385                 5.9333
 IR Inten    --      4.2062               110.5671                38.4894

                     73                     74                     75
                      A                      A                      A
 Frequencies --   3063.0398              3086.0857              3185.7412
 Red. masses --      1.0710                 1.0857                 1.0963
 Frc consts  --      5.9203                 6.0924                 6.5552
 IR Inten    --     54.2450                14.0282                 3.2018

                     76                     77                     78
                      A                      A                      A
 Frequencies --   3370.5392              3429.5297              3513.9211
 Red. masses --      1.0685                 1.0621                 1.0590
 Frc consts  --      7.1519                 7.3604                 7.7043
 IR Inten    --    690.4067               482.9940               606.9418

                     79                     80                     81
                      A                      A                      A
 Frequencies --   3576.6889              3614.8977              3631.9628
 Red. masses --      1.0678                 1.0641                 1.0661
 Frc consts  --      8.0483                 8.1924                 8.2861
 IR Inten    --     87.7521                82.6564               614.0455

                     82                     83                     84
                      A                      A                      A
 Frequencies --   3744.2866              3797.7603              3808.6406
 Red. masses --      1.0662                 1.0694                 1.0687
 Frc consts  --      8.8067                 9.0879                 9.1336
 IR Inten    --     23.3144                66.0119                78.8619

 - Thermochemistry -
 -------------------
 Temperature   298.150 Kelvin.  Pressure   1.00000 Atm.
 Atom     1 has atomic number  6 and mass  12.00000

 Molecular mass:   216.08452 amu.
 Principal axes and moments of inertia in atomic units:
                           1         2         3
     Eigenvalues --  2238.712483842.384985003.62904
           X            0.99981  -0.01928   0.00100
           Y            0.01928   0.99979   0.00717
           Z           -0.00114  -0.00715   0.99997
 This molecule is an asymmetric top.
 Rotational symmetry number  1.
 Warning -- assumption of classical behavior for rotation
           may cause significant error
 Rotational temperatures (Kelvin)      0.03869     0.02254     0.01731
 Rotational constants (GHZ):           0.80615     0.46969     0.36069
 Zero-point vibrational energy     649625.4 (Joules/Mol)
                                  155.26420 (Kcal/Mol)
 Warning -- explicit consideration of  31 degrees of freedom as
           vibrations may cause significant error
 Vibrational temperatures:     66.25    85.16   102.91   138.50   164.69
          (Kelvin)            183.17   220.26   229.84   265.07   297.89
                              308.68   327.89   351.79   361.98   379.71
                              427.62   436.98   463.80   491.65   501.91
                              563.25   597.42   602.42   628.13   665.43
                              694.92   721.13   777.60   805.48   844.30
                              878.34   996.32  1071.04  1105.39  1117.68
                             1234.57  1325.34  1374.38  1455.11  1465.33
                             1474.05  1530.92  1549.84  1574.64  1588.87
                             1600.13  1618.54  1683.72  1715.08  1800.00
                             1877.06  1917.99  1926.80  1944.64  1975.22
                             1982.00  2004.93  2035.71  2041.68  2054.66
                             2091.82  2104.96  2151.10  2163.49  2204.97
                             2464.42  2478.54  2589.14  4227.37  4295.14
                             4308.66  4384.34  4407.03  4440.18  4583.57
                             4849.45  4934.32  5055.74  5146.05  5201.03
                             5225.58  5387.19  5464.12  5479.78

 Zero-point correction=                           0.247429 (Hartree/Particle)
 Thermal correction to Energy=                    0.265268
 Thermal correction to Enthalpy=                  0.266213
 Thermal correction to Gibbs Free Energy=         0.203150
 Sum of electronic and zero-point Energies=           -839.750416
 Sum of electronic and thermal Energies=              -839.732576
 Sum of electronic and thermal Enthalpies=            -839.731632
 Sum of electronic and thermal Free Energies=         -839.794695

                     E (Thermal)             CV                S
                      KCal/Mol        Cal/Mol-Kelvin    Cal/Mol-Kelvin
 Total                  166.458             65.659            132.726
 Electronic               0.000              0.000              0.000
 Translational            0.889              2.981             42.015
 Rotational               0.889              2.981             32.132
 Vibrational            164.681             59.697             58.580
 Vibration     1          0.595              1.979              4.980
 Vibration     2          0.597              1.974              4.484
 Vibration     3          0.598              1.968              4.111
 Vibration     4          0.603              1.952              3.529
 Vibration     5          0.607              1.937              3.192
 Vibration     6          0.611              1.926              2.986
 Vibration     7          0.619              1.899              2.633
 Vibration     8          0.622              1.892              2.553
 Vibration     9          0.631              1.861              2.285
 Vibration    10          0.641              1.830              2.070
 Vibration    11          0.644              1.819              2.005
 Vibration    12          0.651              1.798              1.895
 Vibration    13          0.660              1.772              1.770
 Vibration    14          0.664              1.760              1.719
 Vibration    15          0.670              1.739              1.636
 Vibration    16          0.691              1.679              1.433
 Vibration    17          0.695              1.667              1.396
 Vibration    18          0.707              1.631              1.298
 Vibration    19          0.721              1.592              1.204
 Vibration    20          0.726              1.578              1.171
 Vibration    21          0.759              1.488              0.995
 Vibration    22          0.779              1.437              0.908
 Vibration    23          0.782              1.430              0.896
 Vibration    24          0.797              1.390              0.837
 Vibration    25          0.820              1.333              0.759
 Vibration    26          0.839              1.288              0.702
 Vibration    27          0.857              1.247              0.655
 Vibration    28          0.896              1.161              0.564
 Vibration    29          0.915              1.118              0.524
 Vibration    30          0.944              1.060              0.473
 Vibration    31          0.970              1.010              0.432

 Normal termination of Gaussian 09 at Mon Jan 16 01:16:12 2017.
