 Gaussian 09, Revision E.01,
 Gaussian 09:  ES64L-G09RevE.01 30-Nov-2015

 -------------------------
 # b3lyp/6-31g(d) opt freq
 -------------------------

 -----------------------------------
 glo_1w_alpha_ircr_boat3_B3LYP_631Gd
 -----------------------------------
 Symbolic Z-matrix:
 Charge =  0 Multiplicity = 1

 SCF Done:  E(RB3LYP) =  -839.976230867     A.U. after   14 cycles
 SCF Done:  E(RB3LYP) =  -839.984398938     A.U. after   12 cycles
 SCF Done:  E(RB3LYP) =  -839.987718645     A.U. after   12 cycles
 SCF Done:  E(RB3LYP) =  -839.992249454     A.U. after   12 cycles
 SCF Done:  E(RB3LYP) =  -839.993211729     A.U. after   12 cycles
 SCF Done:  E(RB3LYP) =  -839.994807529     A.U. after   11 cycles
 SCF Done:  E(RB3LYP) =  -839.995413918     A.U. after   11 cycles
 SCF Done:  E(RB3LYP) =  -839.995654855     A.U. after   11 cycles
 SCF Done:  E(RB3LYP) =  -839.995736391     A.U. after    9 cycles
 SCF Done:  E(RB3LYP) =  -839.995808206     A.U. after   10 cycles
 SCF Done:  E(RB3LYP) =  -839.995823085     A.U. after    9 cycles
 SCF Done:  E(RB3LYP) =  -839.995832127     A.U. after    8 cycles
 SCF Done:  E(RB3LYP) =  -839.995841680     A.U. after    9 cycles
 SCF Done:  E(RB3LYP) =  -839.995849084     A.U. after    8 cycles
 SCF Done:  E(RB3LYP) =  -839.995852446     A.U. after    7 cycles
 SCF Done:  E(RB3LYP) =  -839.995855176     A.U. after    7 cycles
 SCF Done:  E(RB3LYP) =  -839.995858141     A.U. after    7 cycles
 SCF Done:  E(RB3LYP) =  -839.995859255     A.U. after    7 cycles
 SCF Done:  E(RB3LYP) =  -839.995859512     A.U. after    6 cycles
 Optimization completed.
    -- Stationary point found.
 Normal termination of Gaussian 09 at Sun Jan 15 21:20:32 2017.

 --------------------------------------------------------------------
 #N Geom=AllCheck Guess=TCheck SCRF=Check GenChk RB3LYP/6-31G(d) Freq
 --------------------------------------------------------------------

 Structure from the checkpoint file:  "/scratch/10464845.yak.local/Gau-20576.chk"
 -----------------------------------
 glo_1w_alpha_ircr_boat3_B3LYP_631Gd
 -----------------------------------
 Charge =  0 Multiplicity = 1

                         Standard orientation:
 ---------------------------------------------------------------------
 Center     Atomic      Atomic             Coordinates (Angstroms)
 Number     Number       Type             X           Y           Z
 ---------------------------------------------------------------------
      1          6           0       -0.555965   -0.121126    0.980298
      2          6           0        0.581444    1.465295   -0.703230
      3          8           0        1.123740   -0.902016   -0.702258
      4          6           0        1.679852    0.417604   -0.562907
      5          6           0       -0.127367   -1.202117   -0.024092
      6          6           0       -0.554440    1.290683    0.332517
      7          1           0       -0.389767    2.004969    1.152448
      8          1           0        0.126299    1.282523   -1.688053
      9          1           0        0.052347   -2.123823    0.546773
     10          1           0       -1.577010   -0.352353    1.296557
     11          6           0       -1.165873   -1.481937   -1.122471
     12          1           0       -0.746951   -2.199405   -1.840234
     13          1           0       -1.418984   -0.562067   -1.650598
     14          8           0       -2.408933   -1.967779   -0.595404
     15          1           0       -2.237672   -2.775544   -0.085344
     16          8           0        1.185769    2.746608   -0.670691
     17          1           0        0.475447    3.389500   -0.825752
     18          8           0       -1.752219    1.581530   -0.378043
     19          1           0       -2.530522    1.253967    0.127266
     20          8           0        0.217943   -0.171486    2.162812
     21          1           0        1.120811    0.117779    1.915103
     22          1           0        2.377489    0.494909   -1.404600
     23          8           0        2.369383    0.572375    0.649295
     24          8           0        3.660192   -1.798064    0.136075
     25          1           0        3.080146   -0.112056    0.646051
     26          1           0        2.772441   -1.893773   -0.265357
     27          1           0        4.280197   -1.853656   -0.606872
     28          8           0       -3.934645    0.119183    0.545396
     29          1           0       -4.680463    0.354651   -0.026948
     30          1           0       -3.539555   -0.678832    0.131415
 ---------------------------------------------------------------------

 SCF Done:  E(RB3LYP) =  -839.995859512     A.U. after    1 cycles

 The electronic state is 1-A.
 Alpha  occ. eigenvalues --  -19.18508 -19.17594 -19.16442 -19.15715 -19.15090
 Alpha  occ. eigenvalues --  -19.14476 -19.12812 -19.12172 -10.29448 -10.24954
 Alpha  occ. eigenvalues --  -10.24729 -10.23671 -10.23202 -10.22811  -1.07809
 Alpha  occ. eigenvalues --   -1.05024  -1.02397  -1.02072  -1.01187  -1.00832
 Alpha  occ. eigenvalues --   -1.00302  -0.99284  -0.77993  -0.76386  -0.69387
 Alpha  occ. eigenvalues --   -0.65079  -0.63535  -0.56689  -0.55422  -0.54369
 Alpha  occ. eigenvalues --   -0.54042  -0.53134  -0.52126  -0.50297  -0.48723
 Alpha  occ. eigenvalues --   -0.47638  -0.45986  -0.45126  -0.44087  -0.42062
 Alpha  occ. eigenvalues --   -0.41415  -0.40236  -0.39972  -0.39283  -0.38654
 Alpha  occ. eigenvalues --   -0.36599  -0.35632  -0.34489  -0.33933  -0.32197
 Alpha  occ. eigenvalues --   -0.31390  -0.31107  -0.29933  -0.29747  -0.28482
 Alpha  occ. eigenvalues --   -0.26439  -0.26077  -0.24235
 Alpha virt. eigenvalues --    0.03787   0.04961   0.07435   0.07941   0.09727
 Alpha virt. eigenvalues --    0.10221   0.11663   0.13649   0.14689   0.14789
 Alpha virt. eigenvalues --    0.15832   0.16241   0.17410   0.18005   0.19337

 Mulliken charges:
               1
     1  C    0.088700
     2  C    0.122815
     3  O   -0.551669
     4  C    0.298006
     5  C    0.089977
     6  C    0.087478
     7  H    0.146951
     8  H    0.139963
     9  H    0.134641
    10  H    0.150720
    11  C   -0.062362
    12  H    0.143958
    13  H    0.184950
    14  O   -0.630545
    15  H    0.407297
    16  O   -0.628850
    17  H    0.403312
    18  O   -0.695167
    19  H    0.427312
    20  O   -0.665305
    21  H    0.422257
    22  H    0.141253
    23  O   -0.639542
    24  O   -0.796704
    25  H    0.435720
    26  H    0.422567
    27  H    0.400086
    28  O   -0.810425
    29  H    0.397143
    30  H    0.435463
 Sum of Mulliken charges =  -0.00000

 Dipole moment (field-independent basis, Debye):
    X=             -0.8816    Y=             -3.0333    Z=             -4.0390  Tot=              5.1275
 Quadrupole moment (field-independent basis, Debye-Ang):
   XX=            -73.4567   YY=            -77.1056   ZZ=            -89.9363
   XY=             -2.1638   XZ=             -3.5582   YZ=              1.8820

  Exact polarizability: 108.410   0.243  93.853  -1.319  -0.019  80.548
 Approx polarizability: 138.845   0.801 126.038   0.479  -0.917 120.576

                      1                      2                      3
                      A                      A                      A
 Frequencies --     43.5191                55.9633                73.9932
 Red. masses --      5.8346                 5.8632                 4.6418
 Frc consts  --      0.0065                 0.0108                 0.0150
 IR Inten    --      0.9977                 0.3357                 9.2682

                      4                      5                      6
                      A                      A                      A
 Frequencies --     99.5887               123.2446               130.2828
 Red. masses --      6.2699                 5.8371                 4.8857
 Frc consts  --      0.0366                 0.0522                 0.0489
 IR Inten    --      1.1415                 8.0128                 6.1684

                      7                      8                      9
                      A                      A                      A
 Frequencies --    173.5253               181.4848               196.2206
 Red. masses --      6.9074                 6.2624                 3.3890
 Frc consts  --      0.1225                 0.1215                 0.0769
 IR Inten    --     27.9294                 2.7584                 1.2992

                     10                     11                     12
                      A                      A                      A
 Frequencies --    213.6956               236.3736               256.0570
 Red. masses --      4.4004                 2.7824                 4.3807
 Frc consts  --      0.1184                 0.0916                 0.1692
 IR Inten    --      8.1739                22.1543                 1.6694

                     13                     14                     15
                      A                      A                      A
 Frequencies --    270.0975               282.0764               287.1294
 Red. masses --      3.5242                 1.6912                 2.0692
 Frc consts  --      0.1515                 0.0793                 0.1005
 IR Inten    --     22.8676                59.3780               119.1313

                     16                     17                     18
                      A                      A                      A
 Frequencies --    302.0502               319.6463               333.4300
 Red. masses --      1.4370                 1.7542                 1.3144
 Frc consts  --      0.0772                 0.1056                 0.0861
 IR Inten    --     60.1520                50.0802               118.7979

                     19                     20                     21
                      A                      A                      A
 Frequencies --    341.6429               356.0380               371.9908
 Red. masses --      1.2101                 1.8659                 2.9705
 Frc consts  --      0.0832                 0.1394                 0.2422
 IR Inten    --     60.5982                85.3258                32.9337

                     22                     23                     24
                      A                      A                      A
 Frequencies --    413.6500               432.3339               460.7776
 Red. masses --      1.8088                 2.6030                 3.3542
 Frc consts  --      0.1824                 0.2867                 0.4196
 IR Inten    --     43.1240                38.4437                25.1688

                     25                     26                     27
                      A                      A                      A
 Frequencies --    485.1838               515.1546               572.4557
 Red. masses --      5.1107                 6.2224                 4.4221
 Frc consts  --      0.7088                 0.9729                 0.8538
 IR Inten    --      4.3120                 8.8592                27.2905

                     28                     29                     30
                      A                      A                      A
 Frequencies --    607.0222               622.5702               636.7901
 Red. masses --      3.8375                 1.1607                 1.1271
 Frc consts  --      0.8331                 0.2651                 0.2693
 IR Inten    --     35.4711               147.8857                 5.7884

                     31                     32                     33
                      A                      A                      A
 Frequencies --    681.1373               698.8083               799.1986
 Red. masses --      2.5035                 1.3288                 3.2159
 Frc consts  --      0.6843                 0.3823                 1.2102
 IR Inten    --     95.5786               291.9610                36.1737

                     34                     35                     36
                      A                      A                      A
 Frequencies --    825.2577               853.8881               894.1932
 Red. masses --      2.3218                 1.1916                 1.1907
 Frc consts  --      0.9316                 0.5119                 0.5609
 IR Inten    --     51.1402                77.5387                81.4544

                     37                     38                     39
                      A                      A                      A
 Frequencies --    905.2698               958.9137               992.7475
 Red. masses --      3.1888                 3.1589                 2.3810
 Frc consts  --      1.5397                 1.7114                 1.3826
 IR Inten    --     16.2342               143.0162                46.4829

                     40                     41                     42
                      A                      A                      A
 Frequencies --   1015.6711              1041.3988              1077.2947
 Red. masses --      3.1185                 3.9148                 3.2689
 Frc consts  --      1.8954                 2.5015                 2.2353
 IR Inten    --     44.2616               143.9922                50.3707

                     43                     44                     45
                      A                      A                      A
 Frequencies --   1091.7401              1102.9747              1114.8488
 Red. masses --      4.5113                 4.3619                 2.3554
 Frc consts  --      3.1681                 3.1265                 1.7248
 IR Inten    --    110.3318                82.9995                45.8492

                     46                     47                     48
                      A                      A                      A
 Frequencies --   1122.2439              1136.8344              1151.0604
 Red. masses --      2.7882                 4.0592                 3.2966
 Frc consts  --      2.0689                 3.0909                 2.5734
 IR Inten    --      6.7125                39.0250               103.6071

                     49                     50                     51
                      A                      A                      A
 Frequencies --   1211.1902              1264.8351              1274.3713
 Red. masses --      1.3470                 1.1233                 1.4351
 Frc consts  --      1.1642                 1.0588                 1.3732
 IR Inten    --     35.2726                41.6548                19.1067

                     52                     53                     54
                      A                      A                      A
 Frequencies --   1311.7531              1328.0189              1335.8605
 Red. masses --      1.2571                 1.1233                 1.2092
 Frc consts  --      1.2744                 1.1672                 1.2714
 IR Inten    --     10.8069                28.8673                51.5999

                     55                     56                     57
                      A                      A                      A
 Frequencies --   1356.8873              1359.5589              1382.3683
 Red. masses --      1.2418                 1.2474                 1.2274
 Frc consts  --      1.3470                 1.3585                 1.3819
 IR Inten    --     15.6054                10.7711                15.0858

                     58                     59                     60
                      A                      A                      A
 Frequencies --   1395.0932              1412.6672              1415.3791
 Red. masses --      1.3114                 1.3177                 1.2617
 Frc consts  --      1.5038                 1.5494                 1.4892
 IR Inten    --     26.6507                19.6135                12.1409

                     61                     62                     63
                      A                      A                      A
 Frequencies --   1445.6396              1456.5939              1484.6988
 Red. masses --      1.2777                 1.3525                 1.3950
 Frc consts  --      1.5733                 1.6906                 1.8118
 IR Inten    --     15.1703                11.8483                24.5419

                     64                     65                     66
                      A                      A                      A
 Frequencies --   1515.6660              1527.6612              1531.9419
 Red. masses --      1.2067                 1.0913                 1.4520
 Frc consts  --      1.6333                 1.5006                 2.0077
 IR Inten    --     60.8090                 5.3972                69.1258

                     67                     68                     69
                      A                      A                      A
 Frequencies --   1714.6382              1723.0398              3016.9527
 Red. masses --      1.0777                 1.0752                 1.0828
 Frc consts  --      1.8668                 1.8808                 5.8069
 IR Inten    --     47.3704                71.4018                 7.3049

                     70                     71                     72
                      A                      A                      A
 Frequencies --   3027.9394              3031.9843              3050.6298
 Red. masses --      1.0851                 1.0861                 1.0701
 Frc consts  --      5.8614                 5.8826                 5.8673
 IR Inten    --     66.1855                37.8682                50.2462

                     73                     74                     75
                      A                      A                      A
 Frequencies --   3074.2906              3108.8004              3162.3284
 Red. masses --      1.0874                 1.0853                 1.0974
 Frc consts  --      6.0550                 6.1801                 6.4658
 IR Inten    --     55.4840                17.0009                 6.0722

                     76                     77                     78
                      A                      A                      A
 Frequencies --   3460.7835              3486.5552              3562.6643
 Red. masses --      1.0662                 1.0668                 1.0585
 Frc consts  --      7.5235                 7.6406                 7.9155
 IR Inten    --    422.2797               305.4313               492.9613

                     79                     80                     81
                      A                      A                      A
 Frequencies --   3572.6867              3607.9794              3738.9183
 Red. masses --      1.0652                 1.0546                 1.0662
 Frc consts  --      8.0106                 8.0882                 8.7816
 IR Inten    --    182.5351               294.1535                26.4831

                     82                     83                     84
                      A                      A                      A
 Frequencies --   3740.4272              3798.8495              3804.6425
 Red. masses --      1.0662                 1.0709                 1.0734
 Frc consts  --      8.7888                 9.1051                 9.1545
 IR Inten    --     23.4178                71.3566                80.1052

 - Thermochemistry -
 -------------------
 Temperature   298.150 Kelvin.  Pressure   1.00000 Atm.
 Atom     1 has atomic number  6 and mass  12.00000

 Molecular mass:   216.08452 amu.
 Principal axes and moments of inertia in atomic units:
                           1         2         3
     Eigenvalues --  2129.457583786.458464723.43139
           X            0.99995  -0.00963  -0.00322
           Y            0.00966   0.99992   0.00809
           Z            0.00314  -0.00812   0.99996
 This molecule is an asymmetric top.
 Rotational symmetry number  1.
 Warning -- assumption of classical behavior for rotation
           may cause significant error
 Rotational temperatures (Kelvin)      0.04067     0.02287     0.01834
 Rotational constants (GHZ):           0.84751     0.47663     0.38208
 Zero-point vibrational energy     655265.1 (Joules/Mol)
                                  156.61211 (Kcal/Mol)
 Warning -- explicit consideration of  28 degrees of freedom as
           vibrations may cause significant error
 Vibrational temperatures:     62.61    80.52   106.46   143.29   177.32
          (Kelvin)            187.45   249.66   261.12   282.32   307.46
                              340.09   368.41   388.61   405.84   413.11
                              434.58   459.90   479.73   491.55   512.26
                              535.21   595.15   622.03   662.96   698.07
                              741.19   823.64   873.37   895.74   916.20
                              980.00  1005.43  1149.87  1187.36  1228.55
                             1286.54  1302.48  1379.66  1428.34  1461.32
                             1498.34  1549.98  1570.77  1586.93  1604.02
                             1614.66  1635.65  1656.12  1742.63  1819.81
                             1833.53  1887.32  1910.72  1922.00  1952.26
                             1956.10  1988.92  2007.23  2032.51  2036.41
                             2079.95  2095.71  2136.15  2180.70  2197.96
                             2204.12  2466.98  2479.07  4340.72  4356.52
                             4362.34  4389.17  4423.21  4472.86  4549.88
                             4979.29  5016.37  5125.87  5140.29  5191.07
                             5379.46  5381.63  5465.69  5474.03

 Zero-point correction=                           0.249577 (Hartree/Particle)
 Thermal correction to Energy=                    0.266772
 Thermal correction to Enthalpy=                  0.267716
 Thermal correction to Gibbs Free Energy=         0.206031
 Sum of electronic and zero-point Energies=           -839.746282
 Sum of electronic and thermal Energies=              -839.729087
 Sum of electronic and thermal Enthalpies=            -839.728143
 Sum of electronic and thermal Free Energies=         -839.789829

                     E (Thermal)             CV                S
                      KCal/Mol        Cal/Mol-Kelvin    Cal/Mol-Kelvin
 Total                  167.402             64.128            129.828
 Electronic               0.000              0.000              0.000
 Translational            0.889              2.981             42.015
 Rotational               0.889              2.981             32.010
 Vibrational            165.625             58.166             55.803
 Vibration     1          0.595              1.980              5.092
 Vibration     2          0.596              1.975              4.595
 Vibration     3          0.599              1.966              4.044
 Vibration     4          0.604              1.949              3.462
 Vibration     5          0.610              1.930              3.049
 Vibration     6          0.612              1.923              2.942
 Vibration     7          0.627              1.875              2.397
 Vibration     8          0.630              1.865              2.313
 Vibration     9          0.636              1.845              2.168
 Vibration    10          0.644              1.820              2.012
 Vibration    11          0.655              1.785              1.830
 Vibration    12          0.666              1.753              1.689
 Vibration    13          0.674              1.728              1.596
 Vibration    14          0.681              1.707              1.521
 Vibration    15          0.684              1.698              1.491
 Vibration    16          0.694              1.670              1.406
 Vibration    17          0.706              1.636              1.312
 Vibration    18          0.715              1.609              1.243
 Vibration    19          0.721              1.592              1.204
 Vibration    20          0.732              1.563              1.139
 Vibration    21          0.744              1.530              1.072
 Vibration    22          0.777              1.441              0.914
 Vibration    23          0.793              1.400              0.851
 Vibration    24          0.819              1.337              0.764
 Vibration    25          0.841              1.283              0.696
 Vibration    26          0.870              1.216              0.621
 Vibration    27          0.929              1.091              0.500
 Vibration    28          0.966              1.017              0.438

 Normal termination of Gaussian 09 at Sun Jan 15 21:52:58 2017.
