 Gaussian 09, Revision E.01,
 Gaussian 09:  ES64L-G09RevE.01 30-Nov-2015

 ---------------------------------------
 # opt=maxcycle=1000 freq b3lyp/6-31g(d)
 ---------------------------------------

 -------------------------
 boat6_Alpha_B3LYP_6-31G_d
 -------------------------
 Symbolic Z-matrix:
 Charge =  0 Multiplicity = 1

 SCF Done:  E(RB3LYP) =  -687.072257314     A.U. after   14 cycles
 SCF Done:  E(RB3LYP) =  -687.101746317     A.U. after   12 cycles
 SCF Done:  E(RB3LYP) =  -687.110108125     A.U. after   12 cycles
 SCF Done:  E(RB3LYP) =  -687.112815661     A.U. after   11 cycles
 SCF Done:  E(RB3LYP) =  -687.115210309     A.U. after   12 cycles
 SCF Done:  E(RB3LYP) =  -687.118280364     A.U. after   14 cycles
 SCF Done:  E(RB3LYP) =  -687.121465266     A.U. after   11 cycles
 SCF Done:  E(RB3LYP) =  -687.127691892     A.U. after   14 cycles
 SCF Done:  E(RB3LYP) =  -687.128781771     A.U. after   12 cycles
 SCF Done:  E(RB3LYP) =  -687.128969778     A.U. after   11 cycles
 SCF Done:  E(RB3LYP) =  -687.129777015     A.U. after   12 cycles
 SCF Done:  E(RB3LYP) =  -687.130070866     A.U. after   11 cycles
 SCF Done:  E(RB3LYP) =  -687.130501446     A.U. after   12 cycles
 SCF Done:  E(RB3LYP) =  -687.130503202     A.U. after   12 cycles
 SCF Done:  E(RB3LYP) =  -687.130578671     A.U. after   10 cycles
 SCF Done:  E(RB3LYP) =  -687.130761057     A.U. after   12 cycles
 SCF Done:  E(RB3LYP) =  -687.130767058     A.U. after    9 cycles
 SCF Done:  E(RB3LYP) =  -687.130767583     A.U. after    7 cycles
 SCF Done:  E(RB3LYP) =  -687.130767881     A.U. after    7 cycles
 Optimization completed.
    -- Stationary point found.
 Normal termination of Gaussian 09 at Thu Jan 12 12:34:30 2017.

 --------------------------------------------------------------------
 #N Geom=AllCheck Guess=TCheck SCRF=Check GenChk RB3LYP/6-31G(d) Freq
 --------------------------------------------------------------------

 Structure from the checkpoint file:  "/scratch/10454693.yak.local/Gau-5938.chk"
 -------------------------
 boat6_Alpha_B3LYP_6-31G_d
 -------------------------
 Charge =  0 Multiplicity = 1

                         Standard orientation:
 ---------------------------------------------------------------------
 Center     Atomic      Atomic             Coordinates (Angstroms)
 Number     Number       Type             X           Y           Z
 ---------------------------------------------------------------------
      1          6           0       -0.966161    0.183348    0.052527
      2          6           0        1.453596    0.976836   -0.158430
      3          6           0       -0.038566    1.406647   -0.017405
      4          6           0        1.680210   -0.485742    0.235962
      5          1           0        2.711620   -0.761642   -0.029758
      6          1           0        2.051841    1.603382    0.523719
      7          1           0       -0.924967   -0.215845    1.071055
      8          1           0       -0.291265    1.988048   -0.924012
      9          6           0        0.716341   -1.399390   -0.564187
     10          8           0       -0.506577   -0.789523   -0.892716
     11          6           0       -2.406165    0.515940   -0.285003
     12          1           0       -2.691313    1.410469    0.287996
     13          1           0       -2.473479    0.751896   -1.359268
     14          8           0       -3.211373   -0.606389    0.054089
     15          1           0       -4.128862   -0.389886   -0.168815
     16          8           0        1.472207   -0.594279    1.630203
     17          1           0        1.152336   -1.504557    1.771484
     18          8           0        1.924771    1.082961   -1.497922
     19          1           0        1.729736    1.975536   -1.821540
     20          8           0       -0.301064    2.168005    1.151743
     21          1           0        0.303170    2.926220    1.168957
     22          1           0        1.161296   -1.677113   -1.525096
     23          8           0        0.508860   -2.554331    0.239724
     24          1           0       -0.330227   -2.943891   -0.056479
 ---------------------------------------------------------------------

 SCF Done:  E(RB3LYP) =  -687.130767881     A.U. after    1 cycles

 The electronic state is 1-A.
 Alpha  occ. eigenvalues --  -19.15898 -19.15608 -19.15489 -19.15325 -19.14300
 Alpha  occ. eigenvalues --  -19.13524 -10.28291 -10.24336 -10.24240 -10.23472
 Alpha  occ. eigenvalues --  -10.23325 -10.23021  -1.07538  -1.03493  -1.02392
 Alpha  occ. eigenvalues --   -1.01838  -1.01041  -0.99844  -0.77813  -0.76273
 Alpha  occ. eigenvalues --   -0.68633  -0.65117  -0.61428  -0.56202  -0.55100
 Alpha  occ. eigenvalues --   -0.53909  -0.51424  -0.50882  -0.49881  -0.47610
 Alpha  occ. eigenvalues --   -0.46401  -0.43184  -0.42010  -0.41183  -0.40291
 Alpha  occ. eigenvalues --   -0.39833  -0.39106  -0.37533  -0.35897  -0.33809
 Alpha  occ. eigenvalues --   -0.32751  -0.31731  -0.29354  -0.28577  -0.27800
 Alpha  occ. eigenvalues --   -0.26665  -0.26054  -0.25371
 Alpha virt. eigenvalues --    0.05306   0.07156   0.07654   0.08342   0.10902
 Alpha virt. eigenvalues --    0.11581   0.13512   0.14389   0.15150   0.15700
 Alpha virt. eigenvalues --    0.17831   0.18396   0.19082   0.20405   0.20794

 Mulliken charges:
               1
     1  C    0.124805
     2  C    0.105524
     3  C    0.102753
     4  C    0.086868
     5  H    0.140558
     6  H    0.127437
     7  H    0.171255
     8  H    0.102206
     9  C    0.342806
    10  O   -0.504680
    11  C   -0.047557
    12  H    0.144411
    13  H    0.124666
    14  O   -0.622903
    15  H    0.394220
    16  O   -0.648606
    17  H    0.420621
    18  O   -0.630885
    19  H    0.391352
    20  O   -0.623288
    21  H    0.390970
    22  H    0.146251
    23  O   -0.648223
    24  H    0.409437
 Sum of Mulliken charges =  -0.00000

 Dipole moment (field-independent basis, Debye):
    X=             -1.2527    Y=              2.3856    Z=             -1.7821  Tot=              3.2305
 Quadrupole moment (field-independent basis, Debye-Ang):
   XX=            -64.6497   YY=            -58.6261   ZZ=            -74.8423
   XY=              2.6631   XZ=              1.5386   YZ=             -2.5834

  Exact polarizability:  85.966   1.153  84.040  -1.017  -0.692  72.007
 Approx polarizability: 108.632   1.723 113.698  -1.980  -1.048 111.331

                      1                      2                      3
                      A                      A                      A
 Frequencies --     50.0634                88.1357               112.9541
 Red. masses --      5.7613                 5.2082                 5.0384
 Frc consts  --      0.0085                 0.0238                 0.0379
 IR Inten    --      0.1273                 4.8857                 2.2083

                      4                      5                      6
                      A                      A                      A
 Frequencies --    120.2114               193.9200               196.7426
 Red. masses --      5.8297                 1.3435                 3.6047
 Frc consts  --      0.0496                 0.0298                 0.0822
 IR Inten    --      0.9652                61.7871                20.1471

                      7                      8                      9
                      A                      A                      A
 Frequencies --    204.5284               241.6970               260.1268
 Red. masses --      1.2479                 1.5776                 1.5974
 Frc consts  --      0.0308                 0.0543                 0.0637
 IR Inten    --     67.3108                79.0438               118.9214

                     10                     11                     12
                      A                      A                      A
 Frequencies --    268.5297               293.2944               300.3940
 Red. masses --      1.8159                 3.1566                 2.1869
 Frc consts  --      0.0771                 0.1600                 0.1163
 IR Inten    --     65.6348                48.3049                48.6810

                     13                     14                     15
                      A                      A                      A
 Frequencies --    337.0310               389.4367               433.4640
 Red. masses --      4.5420                 4.8974                 3.9256
 Frc consts  --      0.3040                 0.4376                 0.4346
 IR Inten    --     14.9111                12.2728                 7.3854

                     16                     17                     18
                      A                      A                      A
 Frequencies --    439.0147               463.4406               504.7362
 Red. masses --      3.1260                 3.1153                 1.5184
 Frc consts  --      0.3550                 0.3942                 0.2279
 IR Inten    --     15.4677                14.0457               103.4139

                     19                     20                     21
                      A                      A                      A
 Frequencies --    523.7939               569.6872               581.5113
 Red. masses --      5.1506                 4.9673                 3.5942
 Frc consts  --      0.8326                 0.9498                 0.7161
 IR Inten    --     43.0249                23.8162                12.8166

                     22                     23                     24
                      A                      A                      A
 Frequencies --    678.0997               814.5739               860.2532
 Red. masses --      5.0269                 3.3641                 4.9484
 Frc consts  --      1.3619                 1.3152                 2.1576
 IR Inten    --     10.3287                10.9524                10.7749

                     25                     26                     27
                      A                      A                      A
 Frequencies --    890.4679               948.2366              1038.0889
 Red. masses --      2.3010                 3.2583                 2.7876
 Frc consts  --      1.0750                 1.7262                 1.7699
 IR Inten    --     34.4180                14.6669                32.6579

                     28                     29                     30
                      A                      A                      A
 Frequencies --   1055.0750              1064.3162              1080.4624
 Red. masses --      3.3768                 2.9596                 4.2221
 Frc consts  --      2.2148                 1.9752                 2.9040
 IR Inten    --     51.2086                47.9914               221.6442

                     31                     32                     33
                      A                      A                      A
 Frequencies --   1092.8855              1094.9538              1109.9540
 Red. masses --      3.3077                 3.9425                 3.0295
 Frc consts  --      2.3277                 2.7850                 2.1990
 IR Inten    --     13.6838                23.0195               171.5117

                     34                     35                     36
                      A                      A                      A
 Frequencies --   1117.5201              1135.6855              1147.5034
 Red. masses --      4.7289                 3.4519                 2.3051
 Frc consts  --      3.4795                 2.6232                 1.7883
 IR Inten    --     78.5920                62.9818                 1.0827

                     37                     38                     39
                      A                      A                      A
 Frequencies --   1212.0383              1220.2713              1269.0040
 Red. masses --      1.1093                 1.1248                 1.1871
 Frc consts  --      0.9601                 0.9868                 1.1263
 IR Inten    --     19.8010                99.9630                23.8853

                     40                     41                     42
                      A                      A                      A
 Frequencies --   1277.4482              1281.1730              1289.7673
 Red. masses --      1.3465                 1.1600                 1.2200
 Frc consts  --      1.2946                 1.1218                 1.1957
 IR Inten    --     40.1729                49.4992                28.2370

                     43                     44                     45
                      A                      A                      A
 Frequencies --   1329.4440              1344.3421              1373.2706
 Red. masses --      1.2259                 1.1954                 1.3683
 Frc consts  --      1.2765                 1.2729                 1.5204
 IR Inten    --     40.7937                 9.5443                 9.2615

                     46                     47                     48
                      A                      A                      A
 Frequencies --   1383.3307              1395.2852              1404.1865
 Red. masses --      1.2789                 1.1980                 1.3127
 Frc consts  --      1.4419                 1.3741                 1.5250
 IR Inten    --      5.7609                 4.4978                28.8289

                     49                     50                     51
                      A                      A                      A
 Frequencies --   1423.0536              1451.3958              1461.6313
 Red. masses --      1.3791                 1.4417                 1.5531
 Frc consts  --      1.6455                 1.7893                 1.9548
 IR Inten    --     10.7606                35.8503                37.0593

                     52                     53                     54
                      A                      A                      A
 Frequencies --   1477.2019              1486.8693              1540.2295
 Red. masses --      1.7072                 1.6176                 1.0897
 Frc consts  --      2.1949                 2.1070                 1.5231
 IR Inten    --     15.0803                 2.3180                 7.8539

                     55                     56                     57
                      A                      A                      A
 Frequencies --   2941.8109              2990.5270              2999.0769
 Red. masses --      1.0829                 1.0841                 1.0601
 Frc consts  --      5.5218                 5.7121                 5.6179
 IR Inten    --     62.5455                55.6118                53.1690

                     58                     59                     60
                      A                      A                      A
 Frequencies --   3019.7696              3046.5242              3089.8778
 Red. masses --      1.0853                 1.1019                 1.0874
 Frc consts  --      5.8310                 6.0259                 6.1165
 IR Inten    --     51.3541                38.5309                55.1156

                     61                     62                     63
                      A                      A                      A
 Frequencies --   3098.0566              3669.0303              3741.6712
 Red. masses --      1.0852                 1.0646                 1.0656
 Frc consts  --      6.1369                 8.4439                 8.7900
 IR Inten    --     15.6560                84.4576                49.7793

                     64                     65                     66
                      A                      A                      A
 Frequencies --   3742.1437              3750.4185              3758.9052
 Red. masses --      1.0663                 1.0664                 1.0665
 Frc consts  --      8.7980                 8.8373                 8.8780
 IR Inten    --      3.0243                11.6979                15.3643

 - Thermochemistry -
 -------------------
 Temperature   298.150 Kelvin.  Pressure   1.00000 Atm.
 Atom     1 has atomic number  6 and mass  12.00000

 Molecular mass:   180.06339 amu.
 Principal axes and moments of inertia in atomic units:
                           1         2         3
     Eigenvalues --  1624.174482133.449842803.44682
           X            0.99993  -0.01125   0.00322
           Y            0.01128   0.99989  -0.01004
           Z           -0.00311   0.01008   0.99994
 This molecule is an asymmetric top.
 Rotational symmetry number  1.
 Warning -- assumption of classical behavior for rotation
           may cause significant error
 Rotational temperatures (Kelvin)      0.05333     0.04060     0.03090
 Rotational constants (GHZ):           1.11117     0.84593     0.64376
 Zero-point vibrational energy     515402.3 (Joules/Mol)
                                  123.18412 (Kcal/Mol)
 Warning -- explicit consideration of  21 degrees of freedom as
           vibrations may cause significant error
 Vibrational temperatures:     72.03   126.81   162.52   172.96   279.01
          (Kelvin)            283.07   294.27   347.75   374.26   386.35
                              421.98   432.20   484.91   560.31   623.66
                              631.64   666.79   726.20   753.62   819.65
                              836.66   975.63  1171.99  1237.71  1281.18
                             1364.30  1493.58  1518.02  1531.31  1554.54
                             1572.42  1575.39  1596.97  1607.86  1634.00
                             1651.00  1743.85  1755.70  1825.81  1837.96
                             1843.32  1855.69  1912.77  1934.21  1975.83
                             1990.30  2007.50  2020.31  2047.45  2088.23
                             2102.96  2125.36  2139.27  2216.04  4232.60
                             4302.70  4315.00  4344.77  4383.26  4445.64
                             4457.41  5278.91  5383.42  5384.10  5396.01
                             5408.22

 Zero-point correction=                           0.196306 (Hartree/Particle)
 Thermal correction to Energy=                    0.209164
 Thermal correction to Enthalpy=                  0.210109
 Thermal correction to Gibbs Free Energy=         0.157740
 Sum of electronic and zero-point Energies=           -686.934461
 Sum of electronic and thermal Energies=              -686.921603
 Sum of electronic and thermal Enthalpies=            -686.920659
 Sum of electronic and thermal Free Energies=         -686.973028

                     E (Thermal)             CV                S
                      KCal/Mol        Cal/Mol-Kelvin    Cal/Mol-Kelvin
 Total                  131.253             47.815            110.220
 Electronic               0.000              0.000              0.000
 Translational            0.889              2.981             41.471
 Rotational               0.889              2.981             30.653
 Vibrational            129.475             41.853             38.096
 Vibration     1          0.595              1.978              4.815
 Vibration     2          0.601              1.958              3.701
 Vibration     3          0.607              1.939              3.218
 Vibration     4          0.609              1.932              3.097
 Vibration     5          0.635              1.848              2.190
 Vibration     6          0.636              1.844              2.163
 Vibration     7          0.640              1.833              2.092
 Vibration     8          0.658              1.776              1.790
 Vibration     9          0.668              1.746              1.661
 Vibration    10          0.673              1.731              1.606
 Vibration    11          0.688              1.686              1.455
 Vibration    12          0.693              1.673              1.415
 Vibration    13          0.718              1.602              1.226
 Vibration    14          0.757              1.493              1.002
 Vibration    15          0.794              1.397              0.847
 Vibration    16          0.799              1.385              0.830
 Vibration    17          0.821              1.331              0.756
 Vibration    18          0.860              1.240              0.646
 Vibration    19          0.879              1.197              0.601
 Vibration    20          0.926              1.097              0.505
 Vibration    21          0.938              1.071              0.483

 Normal termination of Gaussian 09 at Thu Jan 12 12:39:46 2017.
