 Gaussian 09, Revision E.01,
 Gaussian 09:  ES64L-G09RevE.01 30-Nov-2015

 -----------------------------------------
 # opt=(MaxCycle=1000) freq B3LYP/6-31G(d)
 -----------------------------------------

 ------------------------
 boat4_Beta_B3LYP_6-31G_d
 ------------------------
 Symbolic Z-matrix:
 Charge =  0 Multiplicity = 1

 SCF Done:  E(RB3LYP) =  -687.114673760     A.U. after   14 cycles
 SCF Done:  E(RB3LYP) =  -687.132204532     A.U. after   12 cycles
 SCF Done:  E(RB3LYP) =  -687.134925890     A.U. after   12 cycles
 SCF Done:  E(RB3LYP) =  -687.135617236     A.U. after   11 cycles
 SCF Done:  E(RB3LYP) =  -687.136170224     A.U. after   11 cycles
 SCF Done:  E(RB3LYP) =  -687.136472471     A.U. after   12 cycles
 SCF Done:  E(RB3LYP) =  -687.136636715     A.U. after   11 cycles
 SCF Done:  E(RB3LYP) =  -687.136821713     A.U. after   11 cycles
 SCF Done:  E(RB3LYP) =  -687.137132086     A.U. after   11 cycles
 SCF Done:  E(RB3LYP) =  -687.137251880     A.U. after   12 cycles
 SCF Done:  E(RB3LYP) =  -687.137426029     A.U. after   12 cycles
 SCF Done:  E(RB3LYP) =  -687.137466756     A.U. after   11 cycles
 SCF Done:  E(RB3LYP) =  -687.137483062     A.U. after   11 cycles
 SCF Done:  E(RB3LYP) =  -687.137486507     A.U. after   10 cycles
 SCF Done:  E(RB3LYP) =  -687.137486952     A.U. after    7 cycles
 SCF Done:  E(RB3LYP) =  -687.137487187     A.U. after    7 cycles
 SCF Done:  E(RB3LYP) =  -687.137487268     A.U. after    7 cycles
 Optimization completed.
    -- Stationary point found.
 Normal termination of Gaussian 09 at Thu Jan 12 12:18:53 2017.

 --------------------------------------------------------------------
 #N Geom=AllCheck Guess=TCheck SCRF=Check GenChk RB3LYP/6-31G(d) Freq
 --------------------------------------------------------------------

 Structure from the checkpoint file:  "/scratch/10454690.yak.local/Gau-20877.chk"
 ------------------------
 boat4_Beta_B3LYP_6-31G_d
 ------------------------
 Charge =  0 Multiplicity = 1

                         Standard orientation:
 ---------------------------------------------------------------------
 Center     Atomic      Atomic             Coordinates (Angstroms)
 Number     Number       Type             X           Y           Z
 ---------------------------------------------------------------------
      1          8           0        0.087426   -1.417792   -0.821251
      2          6           0        0.476321    0.802346    0.226564
      3          6           0       -1.842984   -0.140536    0.108852
      4          6           0       -0.968703    1.084411   -0.165546
      5          6           0       -1.025045   -1.456231    0.050965
      6          6           0        1.028763   -0.347471   -0.628848
      7          1           0       -1.000151    1.276769   -1.250395
      8          1           0        1.226625    0.064986   -1.628501
      9          1           0        0.507526    0.530083    1.291014
     10          1           0       -1.654953   -2.247114   -0.375655
     11          6           0        2.331416   -0.916656   -0.054650
     12          1           0        2.153863   -1.286079    0.959515
     13          1           0        2.681711   -1.756598   -0.669726
     14          1           0       -2.246154   -0.046742    1.124513
     15          8           0       -0.640204   -1.769690    1.377640
     16          1           0       -0.155168   -2.610373    1.340202
     17          8           0        3.338791    0.097687    0.066579
     18          1           0        3.665335    0.295502   -0.825830
     19          8           0       -2.883037   -0.149540   -0.863488
     20          1           0       -3.626033   -0.657564   -0.504414
     21          8           0       -1.480329    2.191214    0.556241
     22          1           0       -0.792230    2.876362    0.498272
     23          8           0        1.216204    1.999432    0.002399
     24          1           0        2.130211    1.795094    0.272026
 ---------------------------------------------------------------------

 SCF Done:  E(RB3LYP) =  -687.137487268     A.U. after    1 cycles

 The electronic state is 1-A.
 Alpha  occ. eigenvalues --  -19.17542 -19.16335 -19.16334 -19.14733 -19.14716
 Alpha  occ. eigenvalues --  -19.13242 -10.28930 -10.24564 -10.24391 -10.23693
 Alpha  occ. eigenvalues --  -10.23394 -10.22916  -1.07566  -1.04447  -1.02948
 Alpha  occ. eigenvalues --   -1.01989  -1.00822  -0.99903  -0.78227  -0.76840
 Alpha  occ. eigenvalues --   -0.69303  -0.64672  -0.62821  -0.56263  -0.55288
 Alpha  occ. eigenvalues --   -0.53984  -0.52565  -0.51255  -0.49574  -0.47634
 Alpha  occ. eigenvalues --   -0.45923  -0.44360  -0.43290  -0.42360  -0.40835
 Alpha  occ. eigenvalues --   -0.39920  -0.38632  -0.36789  -0.35665  -0.34871
 Alpha  occ. eigenvalues --   -0.33265  -0.31909  -0.31147  -0.29800  -0.27621
 Alpha  occ. eigenvalues --   -0.27326  -0.26409  -0.24907
 Alpha virt. eigenvalues --    0.04332   0.06303   0.07495   0.08864   0.11131
 Alpha virt. eigenvalues --    0.12093   0.13203   0.14142   0.15061   0.15317
 Alpha virt. eigenvalues --    0.16628   0.17678   0.17746   0.19658   0.20972

 Mulliken charges:
               1
     1  O   -0.510553
     2  C    0.071043
     3  C    0.104878
     4  C    0.144838
     5  C    0.296928
     6  C    0.119646
     7  H    0.139919
     8  H    0.134063
     9  H    0.146352
    10  H    0.129941
    11  C   -0.070347
    12  H    0.157867
    13  H    0.144885
    14  H    0.161275
    15  O   -0.616489
    16  H    0.395285
    17  O   -0.619754
    18  H    0.402418
    19  O   -0.627208
    20  H    0.394789
    21  O   -0.648985
    22  H    0.408680
    23  O   -0.670701
    24  H    0.411229
 Sum of Mulliken charges =  -0.00000

 Dipole moment (field-independent basis, Debye):
    X=              1.9992    Y=             -2.8084    Z=             -0.3520  Tot=              3.4652
 Quadrupole moment (field-independent basis, Debye-Ang):
   XX=            -63.8805   YY=            -66.8174   ZZ=            -73.3584
   XY=              5.9595   XZ=             -5.7701   YZ=             -2.3905

  Exact polarizability:  91.374   3.205  82.278  -1.677  -1.228  67.889
 Approx polarizability: 114.952   5.856 112.477  -2.329  -1.257 107.304

                      1                      2                      3
                      A                      A                      A
 Frequencies --     41.0527                91.1501               129.5188
 Red. masses --      5.5101                 6.6753                 6.9436
 Frc consts  --      0.0055                 0.0327                 0.0686
 IR Inten    --      1.5416                 0.1521                 1.5692

                      4                      5                      6
                      A                      A                      A
 Frequencies --    148.5391               211.7001               217.6050
 Red. masses --      3.0175                 3.8156                 1.6380
 Frc consts  --      0.0392                 0.1008                 0.0457
 IR Inten    --      4.1807                14.3808                61.8172

                      7                      8                      9
                      A                      A                      A
 Frequencies --    244.7812               265.5822               278.3564
 Red. masses --      2.2601                 4.5977                 3.8855
 Frc consts  --      0.0798                 0.1911                 0.1774
 IR Inten    --     59.0353                 1.9220                 4.8155

                     10                     11                     12
                      A                      A                      A
 Frequencies --    316.2573               339.0611               362.8366
 Red. masses --      1.1700                 4.6324                 3.9137
 Frc consts  --      0.0689                 0.3138                 0.3036
 IR Inten    --    172.4459                 2.3793                24.1374

                     13                     14                     15
                      A                      A                      A
 Frequencies --    399.6982               415.3389               437.1483
 Red. masses --      3.9090                 1.5386                 1.4122
 Frc consts  --      0.3679                 0.1564                 0.1590
 IR Inten    --     38.6704                88.2091               101.6410

                     16                     17                     18
                      A                      A                      A
 Frequencies --    443.7079               476.7177               513.0829
 Red. masses --      2.3630                 4.2523                 4.5805
 Frc consts  --      0.2741                 0.5694                 0.7105
 IR Inten    --     47.5383                42.9878                14.8906

                     19                     20                     21
                      A                      A                      A
 Frequencies --    544.9728               569.8772               604.0705
 Red. masses --      4.3047                 3.4138                 1.1649
 Frc consts  --      0.7533                 0.6532                 0.2504
 IR Inten    --     14.4325                13.3410                80.5942

                     22                     23                     24
                      A                      A                      A
 Frequencies --    611.1909               782.7986               907.5529
 Red. masses --      3.8337                 6.1485                 3.4653
 Frc consts  --      0.8438                 2.2198                 1.6816
 IR Inten    --     30.6249                31.4851                38.3392

                     25                     26                     27
                      A                      A                      A
 Frequencies --    911.4996               995.5829              1022.5058
 Red. masses --      1.7480                 3.6585                 4.0121
 Frc consts  --      0.8556                 2.1365                 2.4714
 IR Inten    --      0.4846                 2.6456                24.9021

                     28                     29                     30
                      A                      A                      A
 Frequencies --   1046.7384              1049.8743              1060.6549
 Red. masses --      4.0729                 3.8713                 5.1962
 Frc consts  --      2.6292                 2.5141                 3.4442
 IR Inten    --    132.2840               203.5928                35.8261

                     31                     32                     33
                      A                      A                      A
 Frequencies --   1076.6977              1090.3439              1123.8328
 Red. masses --      2.3050                 2.5315                 4.2809
 Frc consts  --      1.5744                 1.7732                 3.1856
 IR Inten    --     30.9141                97.8540                98.3340

                     34                     35                     36
                      A                      A                      A
 Frequencies --   1138.0328              1141.7790              1154.7066
 Red. masses --      2.7798                 2.8635                 3.5957
 Frc consts  --      2.1211                 2.1995                 2.8247
 IR Inten    --     39.3364                24.0226                46.5745

                     37                     38                     39
                      A                      A                      A
 Frequencies --   1186.8542              1226.0432              1247.2319
 Red. masses --      1.3627                 1.2451                 1.1470
 Frc consts  --      1.1309                 1.1027                 1.0512
 IR Inten    --      5.9697                25.5119                60.3249

                     40                     41                     42
                      A                      A                      A
 Frequencies --   1294.0775              1305.7425              1328.4415
 Red. masses --      1.1918                 1.1815                 1.3235
 Frc consts  --      1.1760                 1.1869                 1.3761
 IR Inten    --     21.5240                73.0935                 8.3265

                     43                     44                     45
                      A                      A                      A
 Frequencies --   1334.5841              1355.7085              1386.3740
 Red. masses --      1.2909                 1.1598                 1.2080
 Frc consts  --      1.3547                 1.2559                 1.3679
 IR Inten    --      9.6435                 4.2727                34.6806

                     46                     47                     48
                      A                      A                      A
 Frequencies --   1397.2850              1407.1958              1412.1811
 Red. masses --      1.2928                 1.3144                 1.2724
 Frc consts  --      1.4871                 1.5336                 1.4950
 IR Inten    --     26.5805                58.6336                15.2644

                     49                     50                     51
                      A                      A                      A
 Frequencies --   1418.6424              1429.0721              1440.1738
 Red. masses --      1.2532                 1.3965                 1.5652
 Frc consts  --      1.4860                 1.6803                 1.9127
 IR Inten    --     20.7400                17.1833                 6.6253

                     52                     53                     54
                      A                      A                      A
 Frequencies --   1474.3772              1489.7687              1535.9067
 Red. masses --      1.6087                 1.5747                 1.0873
 Frc consts  --      2.0604                 2.0592                 1.5112
 IR Inten    --      8.5349                17.3894                 1.0610

                     55                     56                     57
                      A                      A                      A
 Frequencies --   2999.8819              3027.5159              3042.1274
 Red. masses --      1.0825                 1.0830                 1.0859
 Frc consts  --      5.7397                 5.8489                 5.9208
 IR Inten    --     18.0322                 9.4309                53.7492

                     58                     59                     60
                      A                      A                      A
 Frequencies --   3044.8740              3055.2359              3067.3982
 Red. masses --      1.0660                 1.0873                 1.0856
 Frc consts  --      5.8230                 5.9798                 6.0181
 IR Inten    --     43.4804                64.5501                23.1624

                     61                     62                     63
                      A                      A                      A
 Frequencies --   3123.7077              3675.8162              3712.3433
 Red. masses --      1.1013                 1.0656                 1.0653
 Frc consts  --      6.3312                 8.4834                 8.6499
 IR Inten    --     29.7076               114.6437                34.1774

                     64                     65                     66
                      A                      A                      A
 Frequencies --   3729.6388              3737.2880              3755.2347
 Red. masses --      1.0657                 1.0663                 1.0666
 Frc consts  --      8.7342                 8.7747                 8.8618
 IR Inten    --     18.3112                23.7666                19.2906

 - Thermochemistry -
 -------------------
 Temperature   298.150 Kelvin.  Pressure   1.00000 Atm.
 Atom     1 has atomic number  8 and mass  15.99491

 Molecular mass:   180.06339 amu.
 Principal axes and moments of inertia in atomic units:
                           1         2         3
     Eigenvalues --  1389.434752329.143573177.47003
           X            0.99998   0.00297  -0.00583
           Y           -0.00301   0.99997  -0.00743
           Z            0.00581   0.00745   0.99996
 This molecule is an asymmetric top.
 Rotational symmetry number  1.
 Warning -- assumption of classical behavior for rotation
           may cause significant error
 Rotational temperatures (Kelvin)      0.06234     0.03719     0.02726
 Rotational constants (GHZ):           1.29890     0.77485     0.56798
 Zero-point vibrational energy     519212.6 (Joules/Mol)
                                  124.09479 (Kcal/Mol)
 Warning -- explicit consideration of  22 degrees of freedom as
           vibrations may cause significant error
 Vibrational temperatures:     59.07   131.14   186.35   213.71   304.59
          (Kelvin)            313.08   352.19   382.11   400.49   455.02
                              487.83   522.04   575.08   597.58   628.96
                              638.40   685.89   738.21   784.09   819.93
                              869.12   879.37  1126.27  1305.76  1311.44
                             1432.42  1471.16  1506.02  1510.53  1526.04
                             1549.13  1568.76  1616.94  1637.37  1642.76
                             1661.36  1707.62  1764.00  1794.49  1861.89
                             1878.67  1911.33  1920.17  1950.56  1994.68
                             2010.38  2024.64  2031.81  2041.11  2056.11
                             2072.09  2121.30  2143.44  2209.82  4316.16
                             4355.91  4376.94  4380.89  4395.80  4413.30
                             4494.31  5288.67  5341.23  5366.11  5377.12
                             5402.94

 Zero-point correction=                           0.197758 (Hartree/Particle)
 Thermal correction to Energy=                    0.210062
 Thermal correction to Enthalpy=                  0.211006
 Thermal correction to Gibbs Free Energy=         0.159832
 Sum of electronic and zero-point Energies=           -686.939730
 Sum of electronic and thermal Energies=              -686.927425
 Sum of electronic and thermal Enthalpies=            -686.926481
 Sum of electronic and thermal Free Energies=         -686.977656

                     E (Thermal)             CV                S
                      KCal/Mol        Cal/Mol-Kelvin    Cal/Mol-Kelvin
 Total                  131.816             46.986            107.706
 Electronic               0.000              0.000              0.000
 Translational            0.889              2.981             41.471
 Rotational               0.889              2.981             30.709
 Vibrational            130.038             41.024             35.525
 Vibration     1          0.594              1.981              5.208
 Vibration     2          0.602              1.955              3.635
 Vibration     3          0.612              1.924              2.953
 Vibration     4          0.618              1.904              2.691
 Vibration     5          0.643              1.823              2.029
 Vibration     6          0.646              1.814              1.979
 Vibration     7          0.660              1.771              1.768
 Vibration     8          0.671              1.736              1.625
 Vibration     9          0.679              1.714              1.544
 Vibration    10          0.703              1.643              1.329
 Vibration    11          0.719              1.597              1.217
 Vibration    12          0.737              1.549              1.110
 Vibration    13          0.766              1.471              0.964
 Vibration    14          0.779              1.437              0.908
 Vibration    15          0.797              1.389              0.836
 Vibration    16          0.803              1.375              0.815
 Vibration    17          0.833              1.302              0.719
 Vibration    18          0.868              1.221              0.626
 Vibration    19          0.900              1.151              0.555
 Vibration    20          0.926              1.096              0.504
 Vibration    21          0.963              1.023              0.443
 Vibration    22          0.970              1.008              0.431

 Normal termination of Gaussian 09 at Thu Jan 12 12:23:55 2017.
