 Gaussian 09, Revision E.01,
 Gaussian 09:  ES64L-G09RevE.01 30-Nov-2015

 ----------------------------------------------------------------------
 # opt=(calcfc,ts,noeigentest,maxcycle=1000,cartesian) b3lyp 6-31g(d) f
 req
 ----------------------------------------------------------------------

 ------------------------
 boat3_Beta_B3LYP_6-31G_d
 ------------------------
 Symbolic Z-matrix:
 Charge =  0 Multiplicity = 1

 SCF Done:  E(RB3LYP) =  -839.951355359     A.U. after   14 cycles
 SCF Done:  E(RB3LYP) =  -839.951200114     A.U. after   12 cycles
 SCF Done:  E(RB3LYP) =  -839.951668607     A.U. after   11 cycles
 SCF Done:  E(RB3LYP) =  -839.951759863     A.U. after   11 cycles
 SCF Done:  E(RB3LYP) =  -839.951862422     A.U. after   11 cycles
 SCF Done:  E(RB3LYP) =  -839.951898841     A.U. after   11 cycles
 SCF Done:  E(RB3LYP) =  -839.951910312     A.U. after   10 cycles
 SCF Done:  E(RB3LYP) =  -839.951910530     A.U. after   10 cycles
 SCF Done:  E(RB3LYP) =  -839.951912049     A.U. after    8 cycles
 SCF Done:  E(RB3LYP) =  -839.951913608     A.U. after    8 cycles
 SCF Done:  E(RB3LYP) =  -839.951913958     A.U. after    8 cycles
 SCF Done:  E(RB3LYP) =  -839.951914647     A.U. after    8 cycles
 SCF Done:  E(RB3LYP) =  -839.951914653     A.U. after    8 cycles
 SCF Done:  E(RB3LYP) =  -839.951914170     A.U. after    8 cycles
 SCF Done:  E(RB3LYP) =  -839.951914508     A.U. after    7 cycles
 Optimization completed.
    -- Stationary point found.
 Normal termination of Gaussian 09 at Thu Jan 12 22:15:39 2017.

 --------------------------------------------------------------------
 #N Geom=AllCheck Guess=TCheck SCRF=Check GenChk RB3LYP/6-31G(d) Freq
 --------------------------------------------------------------------

 Structure from the checkpoint file:  "/scratch/10457235.yak.local/Gau-24091.chk"
 ------------------------
 boat3_Beta_B3LYP_6-31G_d
 ------------------------
 Charge =  0 Multiplicity = 1

                         Standard orientation:
 ---------------------------------------------------------------------
 Center     Atomic      Atomic             Coordinates (Angstroms)
 Number     Number       Type             X           Y           Z
 ---------------------------------------------------------------------
      1          6           0        1.194101    0.218224    0.869621
      2          6           0       -0.493707    1.781861   -0.216749
      3          8           0       -0.139622   -0.754118   -0.939169
      4          6           0       -1.067906    0.787717   -1.266299
      5          6           0        1.170467   -0.461944   -0.519615
      6          6           0       -0.028400    1.132564    1.091439
      7          1           0       -0.589196    0.941675   -2.245081
      8          1           0        0.296827    1.933904    1.773613
      9          1           0       -1.325346    2.461517    0.010075
     10          1           0        1.599761    0.261984   -1.230449
     11          1           0        1.187230   -0.552912    1.659451
     12          6           0        2.053468   -1.712049   -0.545472
     13          1           0        1.996265   -2.195862   -1.528822
     14          1           0        1.719554   -2.432521    0.208897
     15          8           0       -2.302985    0.490012   -1.269474
     16          8           0        3.412186   -1.380006   -0.203295
     17          1           0        3.837008   -1.036660   -1.005065
     18          8           0        0.564828    2.542790   -0.792670
     19          1           0        1.388164    2.346802   -0.309924
     20          8           0       -1.142690    0.435919    1.624521
     21          1           0       -0.876599    0.010839    2.454232
     22          8           0        2.362788    1.034769    0.999297
     23          1           0        3.107493    0.443969    0.774649
     24          8           0       -1.482278   -2.236404    0.467945
     25          1           0       -2.518145   -1.584223    0.537054
     26          1           0       -0.823976   -1.552376   -0.158463
     27          1           0       -1.642524   -3.025731   -0.074650
     28          8           0       -3.427654   -0.791995    0.476302
     29          1           0       -4.139742   -1.167196   -0.068490
     30          1           0       -2.941499   -0.059182   -0.182229
 ---------------------------------------------------------------------

 SCF Done:  E(RB3LYP) =  -839.951914508     A.U. after    1 cycles

 The electronic state is 1-A.
 Alpha  occ. eigenvalues --  -19.17573 -19.16900 -19.16512 -19.15452 -19.15273
 Alpha  occ. eigenvalues --  -19.13296 -19.13245 -19.10034 -10.26502 -10.24442
 Alpha  occ. eigenvalues --  -10.23991 -10.23901 -10.23392 -10.22676  -1.04958
 Alpha  occ. eigenvalues --   -1.04365  -1.03415  -1.02040  -1.01057  -1.00860
 Alpha  occ. eigenvalues --   -0.99699  -0.97085  -0.76518  -0.74152  -0.68810
 Alpha  occ. eigenvalues --   -0.63859  -0.60566  -0.57479  -0.55536  -0.54607
 Alpha  occ. eigenvalues --   -0.53106  -0.51745  -0.51698  -0.49473  -0.48705
 Alpha  occ. eigenvalues --   -0.47280  -0.45933  -0.44975  -0.43425  -0.42270
 Alpha  occ. eigenvalues --   -0.41368  -0.40296  -0.39390  -0.39077  -0.37478
 Alpha  occ. eigenvalues --   -0.36819  -0.35621  -0.34533  -0.33900  -0.31800
 Alpha  occ. eigenvalues --   -0.31604  -0.29797  -0.29416  -0.27692  -0.27567
 Alpha  occ. eigenvalues --   -0.25232  -0.24410  -0.22367
 Alpha virt. eigenvalues --    0.03230   0.05051   0.05230   0.07564   0.08928
 Alpha virt. eigenvalues --    0.09785   0.11155   0.12060   0.13950   0.14870
 Alpha virt. eigenvalues --    0.15309   0.16556   0.17927   0.19230   0.20262

 Mulliken charges:
               1
     1  C    0.069314
     2  C    0.091984
     3  O   -0.663927
     4  C    0.349560
     5  C    0.148180
     6  C    0.088654
     7  H    0.134732
     8  H    0.145634
     9  H    0.156102
    10  H    0.120736
    11  H    0.116795
    12  C   -0.085869
    13  H    0.146925
    14  H    0.157556
    15  O   -0.616149
    16  O   -0.622321
    17  H    0.403289
    18  O   -0.665354
    19  H    0.416202
    20  O   -0.627593
    21  H    0.399665
    22  O   -0.656969
    23  H    0.410123
    24  O   -0.833763
    25  H    0.471105
    26  H    0.473005
    27  H    0.397488
    28  O   -0.800555
    29  H    0.403851
    30  H    0.471597
 Sum of Mulliken charges =  -0.00000

 Dipole moment (field-independent basis, Debye):
    X=              0.9288    Y=             -4.3316    Z=              0.0223  Tot=              4.4301
 Quadrupole moment (field-independent basis, Debye-Ang):
   XX=            -74.5808   YY=            -82.5244   ZZ=            -83.4703
   XY=              7.3585   XZ=             -4.8231   YZ=              5.7488

  Exact polarizability: 116.294   0.365  96.708  -1.875  -2.313  83.863
 Approx polarizability: 158.914   2.549 133.959  -2.096  -7.508 122.296

 ******    1 imaginary frequencies (negative Signs) ******

                      1                      2                      3
                      A                      A                      A
 Frequencies --  -1159.5299                61.0873                62.5711
 Red. masses --      1.1434                 6.3000                 4.7333
 Frc consts  --      0.9058                 0.0139                 0.0109
 IR Inten    --    488.4621                 1.3850                 1.6030

                      4                      5                      6
                      A                      A                      A
 Frequencies --     80.5424               107.8033               133.6267
 Red. masses --      5.4768                 4.9749                 5.8377
 Frc consts  --      0.0209                 0.0341                 0.0614
 IR Inten    --     12.4290                 1.3325                 4.3266

                      7                      8                      9
                      A                      A                      A
 Frequencies --    149.2876               163.3672               194.3478
 Red. masses --      4.7123                 6.3818                 4.8674
 Frc consts  --      0.0619                 0.1004                 0.1083
 IR Inten    --     11.5037                13.2813                27.1079

                     10                     11                     12
                      A                      A                      A
 Frequencies --    201.6601               230.9762               242.4319
 Red. masses --      4.3955                 6.2003                 5.2160
 Frc consts  --      0.1053                 0.1949                 0.1806
 IR Inten    --      3.3169                24.6085                18.0417

                     13                     14                     15
                      A                      A                      A
 Frequencies --    263.5707               326.2979               332.8957
 Red. masses --      1.2819                 3.0576                 1.6470
 Frc consts  --      0.0525                 0.1918                 0.1075
 IR Inten    --    131.9455                23.8816                81.8446

                     16                     17                     18
                      A                      A                      A
 Frequencies --    350.1737               385.2665               406.9094
 Red. masses --      2.3704                 2.8700                 2.3510
 Frc consts  --      0.1713                 0.2510                 0.2294
 IR Inten    --    116.2306                15.5417                50.7363

                     19                     20                     21
                      A                      A                      A
 Frequencies --    428.7042               435.1070               445.4222
 Red. masses --      3.7663                 5.7748                 2.1373
 Frc consts  --      0.4078                 0.6441                 0.2498
 IR Inten    --     52.8249                17.5302               169.2952

                     22                     23                     24
                      A                      A                      A
 Frequencies --    461.7463               495.3132               497.7303
 Red. masses --      1.8698                 1.3894                 2.3843
 Frc consts  --      0.2349                 0.2008                 0.3480
 IR Inten    --     80.4472                56.7381                44.2557

                     25                     26                     27
                      A                      A                      A
 Frequencies --    525.8790               538.8723               582.2630
 Red. masses --      2.1017                 3.3711                 4.3648
 Frc consts  --      0.3424                 0.5768                 0.8719
 IR Inten    --    104.0474                93.4139                19.5604

                     28                     29                     30
                      A                      A                      A
 Frequencies --    588.6503               592.1195               625.8220
 Red. masses --      2.6261                 4.7050                 1.5521
 Frc consts  --      0.5361                 0.9719                 0.3582
 IR Inten    --     12.2918                17.1466                41.8877

                     31                     32                     33
                      A                      A                      A
 Frequencies --    659.0551               671.9793               802.6077
 Red. masses --      1.1160                 4.1321                 4.0665
 Frc consts  --      0.2856                 1.0993                 1.5434
 IR Inten    --     71.6686               143.2988                13.4411

                     34                     35                     36
                      A                      A                      A
 Frequencies --    855.6460               872.0113               902.6889
 Red. masses --      2.5781                 1.3019                 2.1118
 Frc consts  --      1.1121                 0.5833                 1.0139
 IR Inten    --      4.6483               309.0400                10.2380

                     37                     38                     39
                      A                      A                      A
 Frequencies --   1000.3677              1023.3073              1058.1850
 Red. masses --      2.2500                 3.7917                 1.6487
 Frc consts  --      1.3267                 2.3394                 1.0877
 IR Inten    --     24.1522               288.3764               392.0484

                     40                     41                     42
                      A                      A                      A
 Frequencies --   1070.3743              1074.9677              1081.0379
 Red. masses --      3.5404                 1.8994                 4.1511
 Frc consts  --      2.3898                 1.2932                 2.8582
 IR Inten    --    153.2453                63.9263                31.2802

                     43                     44                     45
                      A                      A                      A
 Frequencies --   1113.1564              1124.5007              1130.9391
 Red. masses --      3.1449                 3.0496                 1.8481
 Frc consts  --      2.2960                 2.2721                 1.3927
 IR Inten    --     78.4426                18.5112                 4.9527

                     46                     47                     48
                      A                      A                      A
 Frequencies --   1139.8206              1169.6066              1194.5629
 Red. masses --      1.6538                 1.8564                 1.4812
 Frc consts  --      1.2659                 1.4962                 1.2453
 IR Inten    --      6.0912                68.5359               132.6209

                     49                     50                     51
                      A                      A                      A
 Frequencies --   1246.1244              1277.0472              1299.5196
 Red. masses --      1.2008                 1.2621                 1.1479
 Frc consts  --      1.0986                 1.2127                 1.1422
 IR Inten    --     12.2716                19.3559                48.3186

                     52                     53                     54
                      A                      A                      A
 Frequencies --   1325.8457              1344.4307              1345.6248
 Red. masses --      1.2041                 1.1482                 1.1954
 Frc consts  --      1.2471                 1.2227                 1.2753
 IR Inten    --     98.5838               226.6905               289.3697

                     55                     56                     57
                      A                      A                      A
 Frequencies --   1371.3859              1374.4045              1385.3502
 Red. masses --      1.2226                 1.2359                 1.2728
 Frc consts  --      1.3547                 1.3755                 1.4392
 IR Inten    --    310.2698                37.4713                32.0162

                     58                     59                     60
                      A                      A                      A
 Frequencies --   1396.8429              1415.8751              1429.3112
 Red. masses --      1.2360                 1.2802                 1.4301
 Frc consts  --      1.4209                 1.5120                 1.7214
 IR Inten    --    369.1375                25.7082                33.7220

                     61                     62                     63
                      A                      A                      A
 Frequencies --   1439.1994              1457.9596              1476.3461
 Red. masses --      1.5055                 1.3356                 1.4707
 Frc consts  --      1.8373                 1.6727                 1.8886
 IR Inten    --    174.1498                90.0668                37.3613

                     64                     65                     66
                      A                      A                      A
 Frequencies --   1498.6462              1535.6960              1550.8408
 Red. masses --      1.3126                 1.0974                 1.9037
 Frc consts  --      1.7370                 1.5248                 2.6977
 IR Inten    --    657.1352                18.0644               588.8579

                     67                     68                     69
                      A                      A                      A
 Frequencies --   1615.7372              1658.0715              1745.7440
 Red. masses --      1.1167                 1.1802                 1.0644
 Frc consts  --      1.7176                 1.9117                 1.9113
 IR Inten    --   1696.3882               192.3371               403.8828

                     70                     71                     72
                      A                      A                      A
 Frequencies --   1862.6183              1960.7281              2970.8827
 Red. masses --      1.0481                 1.1098                 1.0835
 Frc consts  --      2.1423                 2.5137                 5.6346
 IR Inten    --    246.8347              2088.7604                52.5214

                     73                     74                     75
                      A                      A                      A
 Frequencies --   3003.2257              3006.3484              3028.3922
 Red. masses --      1.0838                 1.0842                 1.0890
 Frc consts  --      5.7592                 5.7735                 5.8844
 IR Inten    --     29.6197                52.7097                53.6560

                     76                     77                     78
                      A                      A                      A
 Frequencies --   3051.0534              3055.1883              3110.8066
 Red. masses --      1.0610                 1.0856                 1.1067
 Frc consts  --      5.8194                 5.9704                 6.3098
 IR Inten    --     48.3243                35.4539                33.9087

                     79                     80                     81
                      A                      A                      A
 Frequencies --   3639.0238              3664.0722              3745.2115
 Red. masses --      1.0659                 1.0675                 1.0665
 Frc consts  --      8.3166                 8.4443                 8.8136
 IR Inten    --    167.6229                53.8858                26.7396

                     82                     83                     84
                      A                      A                      A
 Frequencies --   3750.2521              3758.0319              3764.3879
 Red. masses --      1.0664                 1.0642                 1.0647
 Frc consts  --      8.8368                 8.8553                 8.8889
 IR Inten    --     16.4593                34.1126                37.2227

 - Thermochemistry -
 -------------------
 Temperature   298.150 Kelvin.  Pressure   1.00000 Atm.
 Atom     1 has atomic number  6 and mass  12.00000

 Molecular mass:   216.08452 amu.
 Principal axes and moments of inertia in atomic units:
                           1         2         3
     Eigenvalues --  2104.831873484.481804240.15004
           X            0.99991   0.01012  -0.00847
           Y           -0.00999   0.99983   0.01544
           Z            0.00862  -0.01535   0.99984
 This molecule is an asymmetric top.
 Rotational symmetry number  1.
 Warning -- assumption of classical behavior for rotation
           may cause significant error
 Rotational temperatures (Kelvin)      0.04115     0.02486     0.02043
 Rotational constants (GHZ):           0.85743     0.51794     0.42563
    1 imaginary frequencies ignored.
 Zero-point vibrational energy     630524.6 (Joules/Mol)
                                  150.69900 (Kcal/Mol)
 Warning -- explicit consideration of  28 degrees of freedom as
           vibrations may cause significant error
 Vibrational temperatures:     87.89    90.03   115.88   155.10   192.26
          (Kelvin)            214.79   235.05   279.62   290.14   332.32
                              348.80   379.22   469.47   478.96   503.82
                              554.31   585.45   616.81   626.02   640.86
                              664.35   712.64   716.12   756.62   775.32
                              837.75   846.94   851.93   900.42   948.23
                              966.83  1154.77  1231.08  1254.63  1298.77
                             1439.30  1472.31  1522.49  1540.03  1546.64
                             1555.37  1601.58  1617.90  1627.17  1639.95
                             1682.80  1718.71  1792.89  1837.38  1869.72
                             1907.59  1934.33  1936.05  1973.12  1977.46
                             1993.21  2009.74  2037.13  2056.46  2070.68
                             2097.68  2124.13  2156.21  2209.52  2231.31
                             2324.68  2385.59  2511.73  2679.89  2821.05
                             4274.43  4320.97  4325.46  4357.18  4389.78
                             4395.73  4475.75  5235.74  5271.78  5388.52
                             5395.77  5406.96  5416.11

 Zero-point correction=                           0.240154 (Hartree/Particle)
 Thermal correction to Energy=                    0.255953
 Thermal correction to Enthalpy=                  0.256897
 Thermal correction to Gibbs Free Energy=         0.198345
 Sum of electronic and zero-point Energies=           -839.711760
 Sum of electronic and thermal Energies=              -839.695962
 Sum of electronic and thermal Enthalpies=            -839.695017
 Sum of electronic and thermal Free Energies=         -839.753570

                     E (Thermal)             CV                S
                      KCal/Mol        Cal/Mol-Kelvin    Cal/Mol-Kelvin
 Total                  160.613             60.413            123.234
 Electronic               0.000              0.000              0.000
 Translational            0.889              2.981             42.015
 Rotational               0.889              2.981             31.809
 Vibrational            158.835             54.451             49.410
 Vibration     1          0.597              1.973              4.422
 Vibration     2          0.597              1.972              4.374
 Vibration     3          0.600              1.962              3.878
 Vibration     4          0.606              1.943              3.308
 Vibration     5          0.613              1.920              2.893
 Vibration     6          0.618              1.903              2.681
 Vibration     7          0.623              1.887              2.510
 Vibration     8          0.635              1.848              2.186
 Vibration     9          0.639              1.838              2.118
 Vibration    10          0.653              1.794              1.871
 Vibration    11          0.659              1.775              1.785
 Vibration    12          0.670              1.740              1.638
 Vibration    13          0.710              1.623              1.278
 Vibration    14          0.715              1.610              1.246
 Vibration    15          0.727              1.575              1.165
 Vibration    16          0.754              1.502              1.018
 Vibration    17          0.772              1.455              0.938
 Vibration    18          0.790              1.408              0.863
 Vibration    19          0.796              1.394              0.842
 Vibration    20          0.805              1.371              0.810
 Vibration    21          0.819              1.335              0.761
 Vibration    22          0.851              1.260              0.670
 Vibration    23          0.853              1.255              0.664
 Vibration    24          0.881              1.193              0.596
 Vibration    25          0.894              1.164              0.568
 Vibration    26          0.939              1.070              0.481
 Vibration    27          0.946              1.056              0.470
 Vibration    28          0.950              1.049              0.463

 Normal termination of Gaussian 09 at Thu Jan 12 22:35:30 2017.
