 Gaussian 09, Revision E.01,
 Gaussian 09:  ES64L-G09RevE.01 30-Nov-2015

 ----------------------------------------------------------------------
 # opt=(calcfc,ts,noeigentest,maxcycle=500,cartesian) freq b3lyp/6-31g(
 d)
 ----------------------------------------------------------------------

 -------------------------
 boat3_Alpha_B3LYP_6-31G_d
 -------------------------
 Symbolic Z-matrix:
 Charge =  0 Multiplicity = 1

 SCF Done:  E(RB3LYP) =  -839.960915706     A.U. after   14 cycles
 SCF Done:  E(RB3LYP) =  -839.961184760     A.U. after   11 cycles
 SCF Done:  E(RB3LYP) =  -839.961295244     A.U. after   11 cycles
 SCF Done:  E(RB3LYP) =  -839.961334126     A.U. after   10 cycles
 SCF Done:  E(RB3LYP) =  -839.961314070     A.U. after   11 cycles
 SCF Done:  E(RB3LYP) =  -839.961273841     A.U. after   11 cycles
 SCF Done:  E(RB3LYP) =  -839.961290872     A.U. after   11 cycles
 SCF Done:  E(RB3LYP) =  -839.961327618     A.U. after   11 cycles
 SCF Done:  E(RB3LYP) =  -839.961327945     A.U. after   11 cycles
 SCF Done:  E(RB3LYP) =  -839.961333910     A.U. after   11 cycles
 SCF Done:  E(RB3LYP) =  -839.961200590     A.U. after   11 cycles
 SCF Done:  E(RB3LYP) =  -839.961308574     A.U. after   11 cycles
 SCF Done:  E(RB3LYP) =  -839.961342825     A.U. after   11 cycles
 SCF Done:  E(RB3LYP) =  -839.961349826     A.U. after   11 cycles
 SCF Done:  E(RB3LYP) =  -839.961355466     A.U. after    8 cycles
 SCF Done:  E(RB3LYP) =  -839.961356102     A.U. after    8 cycles
 SCF Done:  E(RB3LYP) =  -839.961356265     A.U. after    7 cycles
 SCF Done:  E(RB3LYP) =  -839.961356309     A.U. after    8 cycles
 SCF Done:  E(RB3LYP) =  -839.961356260     A.U. after    7 cycles
 Optimization completed.
    -- Stationary point found.
 Normal termination of Gaussian 09 at Thu Jan 12 13:26:10 2017.

 --------------------------------------------------------------------
 #N Geom=AllCheck Guess=TCheck SCRF=Check GenChk RB3LYP/6-31G(d) Freq
 --------------------------------------------------------------------

 Structure from the checkpoint file:  "/scratch/10454741.yak.local/Gau-8341.chk"
 -------------------------
 boat3_Alpha_B3LYP_6-31G_d
 -------------------------
 Charge =  0 Multiplicity = 1

                         Standard orientation:
 ---------------------------------------------------------------------
 Center     Atomic      Atomic             Coordinates (Angstroms)
 Number     Number       Type             X           Y           Z
 ---------------------------------------------------------------------
      1          6           0        1.034724    0.206886    1.098052
      2          6           0        0.483562   -1.522733   -0.745496
      3          8           0       -0.521962    0.688624   -0.783413
      4          6           0       -0.903596   -0.894787   -0.632031
      5          6           0        0.529088    1.231026    0.069013
      6          6           0        1.363158   -1.173674    0.465207
      7          1           0        1.178512   -1.921196    1.247609
      8          1           0        0.962075   -1.094232   -1.638071
      9          1           0        0.080736    2.058404    0.636239
     10          1           0        1.956898    0.625927    1.518077
     11          6           0        1.635621    1.788574   -0.840591
     12          1           0        1.173447    2.392059   -1.636486
     13          1           0        2.190874    0.973631   -1.310086
     14          8           0        2.596022    2.532462   -0.100604
     15          1           0        2.153571    3.319453    0.255128
     16          8           0        0.318468   -2.922923   -0.903611
     17          1           0        1.211205   -3.287530   -1.015959
     18          8           0        2.706361   -1.275356   -0.023159
     19          1           0        3.308340   -1.174972    0.731173
     20          8           0        0.129294    0.066691    2.176495
     21          1           0       -0.634053   -0.434106    1.803191
     22          1           0       -1.463736   -0.985882   -1.575884
     23          8           0       -1.580444   -1.137409    0.460913
     24          8           0       -2.624630    1.862174   -0.532907
     25          1           0       -1.579279    1.332349   -0.681900
     26          1           0       -2.982893    2.093841   -1.405169
     27          8           0       -3.792726   -0.077618    0.335009
     28          1           0       -2.862007   -0.663879    0.409260
     29          1           0       -3.275517    1.026243   -0.094837
     30          1           0       -4.116575    0.034973    1.243014
 ---------------------------------------------------------------------

 SCF Done:  E(RB3LYP) =  -839.961356260     A.U. after    1 cycles

 Isotropic polarizability for W=    0.000000       97.20 Bohr**3.
 End of Minotr F.D. properties file   721 does not exist.

 The electronic state is 1-A.
 Alpha  occ. eigenvalues --  -19.18632 -19.17973 -19.16098 -19.15387 -19.15368
 Alpha  occ. eigenvalues --  -19.14138 -19.11660 -19.11034 -10.28595 -10.24449
 Alpha  occ. eigenvalues --  -10.23421 -10.23273 -10.23237 -10.23062  -1.06547
 Alpha  occ. eigenvalues --   -1.03935  -1.02716  -1.02302  -1.01471  -1.00996
 Alpha  occ. eigenvalues --   -0.99373  -0.97565  -0.77132  -0.75335  -0.68127
 Alpha  occ. eigenvalues --   -0.64464  -0.62015  -0.57373  -0.55854  -0.54874
 Alpha  occ. eigenvalues --   -0.54214  -0.53151  -0.51109  -0.50348  -0.48494
 Alpha  occ. eigenvalues --   -0.46452  -0.46286  -0.44894  -0.44400  -0.43362
 Alpha  occ. eigenvalues --   -0.41131  -0.40795  -0.39541  -0.38638  -0.37438
 Alpha  occ. eigenvalues --   -0.36355  -0.35322  -0.34798  -0.34383  -0.32584
 Alpha  occ. eigenvalues --   -0.31787  -0.30644  -0.28677  -0.27763  -0.27163
 Alpha  occ. eigenvalues --   -0.25757  -0.25049  -0.23796
 Alpha virt. eigenvalues --    0.04299   0.05458   0.06751   0.07060   0.08498
 Alpha virt. eigenvalues --    0.10392   0.11786   0.12220   0.12711   0.15063
 Alpha virt. eigenvalues --    0.15246   0.16626   0.17476   0.18822   0.20275

 Mulliken charges:
               1
     1  C    0.113094
     2  C    0.138049
     3  O   -0.646545
     4  C    0.319817
     5  C    0.091291
     6  C    0.066241
     7  H    0.154138
     8  H    0.132728
     9  H    0.138104
    10  H    0.141673
    11  C   -0.052597
    12  H    0.126035
    13  H    0.178059
    14  O   -0.609956
    15  H    0.391380
    16  O   -0.633537
    17  H    0.401287
    18  O   -0.643324
    19  H    0.399321
    20  O   -0.674467
    21  H    0.419819
    22  H    0.128435
    23  O   -0.650126
    24  O   -0.828386
    25  H    0.484262
    26  H    0.415810
    27  O   -0.836252
    28  H    0.464642
    29  H    0.462561
    30  H    0.408443
 Sum of Mulliken charges =   0.00000

 Dipole moment (field-independent basis, Debye):
    X=             -1.0768    Y=              2.9646    Z=             -1.3004  Tot=              3.4117
 Quadrupole moment (field-independent basis, Debye-Ang):
   XX=            -77.9571   YY=            -80.8228   ZZ=            -83.1050
   XY=            -11.6731   XZ=              2.9851   YZ=             -3.3572

 ******    1 imaginary frequencies (negative Signs)  Full mass-weighted force constant matrix:
 ******    1 imaginary frequencies (negative Signs) ******

                      1                      2                      3
                      A                      A                      A
 Frequencies --  -1112.7935                42.6928                55.1096
 Red. masses --      1.1620                 5.5024                 5.5106
 Frc consts  --      0.8478                 0.0059                 0.0099
 IR Inten    --    522.4788                 1.1376                 0.5199

                      4                      5                      6
                      A                      A                      A
 Frequencies --     76.9677                80.8669               118.4832
 Red. masses --      4.9846                 5.4526                 6.6779
 Frc consts  --      0.0174                 0.0210                 0.0552
 IR Inten    --      2.2177                 0.2114                 0.5998

                      7                      8                      9
                      A                      A                      A
 Frequencies --    136.9909               178.7248               206.6113
 Red. masses --      3.3063                 3.6014                 5.6246
 Frc consts  --      0.0366                 0.0678                 0.1415
 IR Inten    --      4.8258                 5.2555                 8.4370

                     10                     11                     12
                      A                      A                      A
 Frequencies --    210.0110               239.2739               266.5888
 Red. masses --      8.1547                 5.0236                 3.8154
 Frc consts  --      0.2119                 0.1695                 0.1598
 IR Inten    --     11.7321                 1.8645                 6.5850

                     13                     14                     15
                      A                      A                      A
 Frequencies --    287.3963               328.6100               337.7872
 Red. masses --      4.4609                 2.4070                 1.3298
 Frc consts  --      0.2171                 0.1531                 0.0894
 IR Inten    --      0.6137                61.5921               141.7371

                     16                     17                     18
                      A                      A                      A
 Frequencies --    343.7145               361.9238               378.2769
 Red. masses --      1.5076                 2.9754                 1.6777
 Frc consts  --      0.1049                 0.2296                 0.1414
 IR Inten    --     79.1170                33.4226                47.7890

                     19                     20                     21
                      A                      A                      A
 Frequencies --    401.9114               419.3632               441.2337
 Red. masses --      3.0258                 1.2045                 3.0876
 Frc consts  --      0.2880                 0.1248                 0.3542
 IR Inten    --     66.4352                80.9930               135.4793

                     22                     23                     24
                      A                      A                      A
 Frequencies --    485.3297               506.6937               518.1300
 Red. masses --      5.2689                 4.7225                 4.6812
 Frc consts  --      0.7312                 0.7144                 0.7404
 IR Inten    --    152.7295                13.5551               187.8102

                     25                     26                     27
                      A                      A                      A
 Frequencies --    557.4782               569.9462               583.7234
 Red. masses --      1.5168                 2.7950                 5.3934
 Frc consts  --      0.2777                 0.5349                 1.0827
 IR Inten    --     59.5207                32.6753               157.0546

                     28                     29                     30
                      A                      A                      A
 Frequencies --    623.8442               637.7521               705.2206
 Red. masses --      2.9432                 1.6390                 2.1614
 Frc consts  --      0.6749                 0.3928                 0.6333
 IR Inten    --      7.8806                 3.1093                71.6601

                     31                     32                     33
                      A                      A                      A
 Frequencies --    741.5750               755.7240               761.9582
 Red. masses --      1.1934                 1.5812                 2.3353
 Frc consts  --      0.3867                 0.5321                 0.7988
 IR Inten    --     17.2693               134.4925               305.5702

                     34                     35                     36
                      A                      A                      A
 Frequencies --    815.5110               846.5008               925.6311
 Red. masses --      2.5513                 5.3793                 2.9084
 Frc consts  --      0.9997                 2.2711                 1.4682
 IR Inten    --     44.6138               175.7445                34.7167

                     37                     38                     39
                      A                      A                      A
 Frequencies --    972.8351               994.3379              1049.4196
 Red. masses --      2.7645                 2.1633                 2.7230
 Frc consts  --      1.5415                 1.2602                 1.7669
 IR Inten    --    141.4270                78.3933                65.3799

                     40                     41                     42
                      A                      A                      A
 Frequencies --   1073.7047              1085.4593              1096.1037
 Red. masses --      3.1833                 4.7526                 3.0010
 Frc consts  --      2.1622                 3.2992                 2.1243
 IR Inten    --    313.0026                77.1245                 9.0626

                     43                     44                     45
                      A                      A                      A
 Frequencies --   1109.5142              1117.5975              1122.9694
 Red. masses --      2.9411                 2.0007                 3.1985
 Frc consts  --      2.1332                 1.4723                 2.3764
 IR Inten    --     34.2453                48.5722               143.6403

                     46                     47                     48
                      A                      A                      A
 Frequencies --   1145.0236              1201.5443              1228.3837
 Red. masses --      1.3047                 1.3287                 1.2285
 Frc consts  --      1.0078                 1.1302                 1.0922
 IR Inten    --    505.2498                 8.3213                91.9918

                     49                     50                     51
                      A                      A                      A
 Frequencies --   1244.9077              1271.3586              1301.0825
 Red. masses --      1.2711                 1.2589                 1.5756
 Frc consts  --      1.1607                 1.1989                 1.5715
 IR Inten    --    123.6928                33.2882                17.8806

                     52                     53                     54
                      A                      A                      A
 Frequencies --   1318.4717              1341.8586              1350.6899
 Red. masses --      1.1718                 1.4554                 1.2535
 Frc consts  --      1.2001                 1.5440                 1.3474
 IR Inten    --     30.4682               240.1179                 9.7289

                     55                     56                     57
                      A                      A                      A
 Frequencies --   1366.3342              1375.5255              1396.5353
 Red. masses --      1.2968                 1.2940                 1.2521
 Frc consts  --      1.4264                 1.4426                 1.4387
 IR Inten    --    195.5669                29.1676               487.6381

                     58                     59                     60
                      A                      A                      A
 Frequencies --   1406.1213              1423.0975              1433.1830
 Red. masses --      1.4935                 1.1447                 1.2274
 Frc consts  --      1.7398                 1.3659                 1.4854
 IR Inten    --     31.7696                23.4623               112.5169

                     61                     62                     63
                      A                      A                      A
 Frequencies --   1452.9230              1457.6658              1485.3081
 Red. masses --      1.4300                 1.5357                 1.4152
 Frc consts  --      1.7785                 1.9225                 1.8395
 IR Inten    --     74.5274               117.8054              1700.0116

                     64                     65                     66
                      A                      A                      A
 Frequencies --   1509.4557              1529.5748              1545.0624
 Red. masses --      1.4417                 1.0872                 1.1228
 Frc consts  --      1.9354                 1.4987                 1.5793
 IR Inten    --    468.8235                 7.4237               434.2600

                     67                     68                     69
                      A                      A                      A
 Frequencies --   1599.6658              1650.2622              1720.4707
 Red. masses --      1.1085                 1.0597                 1.0577
 Frc consts  --      1.6712                 1.7004                 1.8447
 IR Inten    --   1118.6106               228.2415               270.6300

                     70                     71                     72
                      A                      A                      A
 Frequencies --   1847.8302              1929.0893              3010.2585
 Red. masses --      1.0462                 1.0881                 1.0851
 Frc consts  --      2.1047                 2.3856                 5.7935
 IR Inten    --    373.5370              2331.2648                66.8230

                     73                     74                     75
                      A                      A                      A
 Frequencies --   3017.5412              3025.9031              3036.1458
 Red. masses --      1.0722                 1.0856                 1.0850
 Frc consts  --      5.7522                 5.8566                 5.8929
 IR Inten    --     49.0889                66.6127                40.8705

                     76                     77                     78
                      A                      A                      A
 Frequencies --   3052.2821              3072.2862              3142.0860
 Red. masses --      1.0856                 1.0857                 1.0944
 Frc consts  --      5.9589                 6.0379                 6.3661
 IR Inten    --     36.7501                25.6987                13.8325

                     79                     80                     81
                      A                      A                      A
 Frequencies --   3447.3347              3733.1882              3736.8681
 Red. masses --      1.0666                 1.0662                 1.0660
 Frc consts  --      7.4684                 8.7547                 8.7703
 IR Inten    --    273.2166                13.7130                21.8121

                     82                     83                     84
                      A                      A                      A
 Frequencies --   3741.1899              3774.2120              3777.4920
 Red. masses --      1.0662                 1.0648                 1.0650
 Frc consts  --      8.7923                 8.9368                 8.9540
 IR Inten    --     20.5831                56.6312                40.7622

 - Thermochemistry -
 -------------------
 Temperature   298.150 Kelvin.  Pressure   1.00000 Atm.
 Atom     1 has atomic number  6 and mass  12.00000

 Molecular mass:   216.08452 amu.
 Principal axes and moments of inertia in atomic units:
                           1         2         3
     Eigenvalues --  2418.451383368.032284582.18703
           X            0.99975  -0.02238   0.00065
           Y            0.02239   0.99969  -0.01063
           Z           -0.00041   0.01064   0.99994
 This molecule is an asymmetric top.
 Rotational symmetry number  1.
 Warning -- assumption of classical behavior for rotation
           may cause significant error
 Rotational temperatures (Kelvin)      0.03581     0.02572     0.01890
 Rotational constants (GHZ):           0.74624     0.53584     0.39386
    1 imaginary frequencies ignored.
 Zero-point vibrational energy     632033.3 (Joules/Mol)
                                  151.05957 (Kcal/Mol)
 Warning -- explicit consideration of  26 degrees of freedom as
           vibrations may cause significant error
 Vibrational temperatures:     61.43    79.29   110.74   116.35   170.47
          (Kelvin)            197.10   257.14   297.27   302.16   344.26
                              383.56   413.50   472.80   486.00   494.53
                              520.73   544.26   578.26   603.37   634.84
                              698.28   729.02   745.47   802.09   820.02
                              839.85   897.57   917.58  1014.65  1066.96
                             1087.32  1096.29  1173.34  1217.92  1331.77
                             1399.69  1430.63  1509.88  1544.82  1561.73
                             1577.05  1596.34  1607.97  1615.70  1647.43
                             1728.75  1767.37  1791.14  1829.20  1871.97
                             1896.98  1930.63  1943.34  1965.85  1979.07
                             2009.30  2023.09  2047.52  2062.03  2090.43
                             2097.25  2137.02  2171.77  2200.71  2223.00
                             2301.56  2374.36  2475.37  2658.61  2775.53
                             4331.09  4341.56  4353.59  4368.33  4391.55
                             4420.33  4520.76  4959.94  5371.22  5376.51
                             5382.73  5430.24  5434.96

 Zero-point correction=                           0.240729 (Hartree/Particle)
 Thermal correction to Energy=                    0.256449
 Thermal correction to Enthalpy=                  0.257393
 Thermal correction to Gibbs Free Energy=         0.198283
 Sum of electronic and zero-point Energies=           -839.720628
 Sum of electronic and thermal Energies=              -839.704907
 Sum of electronic and thermal Enthalpies=            -839.703963
 Sum of electronic and thermal Free Energies=         -839.763074

                     E (Thermal)             CV                S
                      KCal/Mol        Cal/Mol-Kelvin    Cal/Mol-Kelvin
 Total                  160.924             59.782            124.409
 Electronic               0.000              0.000              0.000
 Translational            0.889              2.981             42.015
 Rotational               0.889              2.981             31.990
 Vibrational            159.147             53.820             50.404
 Vibration     1          0.595              1.980              5.130
 Vibration     2          0.596              1.976              4.625
 Vibration     3          0.599              1.965              3.967
 Vibration     4          0.600              1.962              3.870
 Vibration     5          0.609              1.934              3.125
 Vibration     6          0.614              1.916              2.845
 Vibration     7          0.629              1.868              2.342
 Vibration     8          0.641              1.830              2.073
 Vibration     9          0.642              1.826              2.044
 Vibration    10          0.657              1.780              1.808
 Vibration    11          0.672              1.734              1.618
 Vibration    12          0.685              1.697              1.489
 Vibration    13          0.712              1.618              1.267
 Vibration    14          0.718              1.600              1.223
 Vibration    15          0.722              1.588              1.195
 Vibration    16          0.736              1.551              1.114
 Vibration    17          0.749              1.516              1.046
 Vibration    18          0.768              1.466              0.956
 Vibration    19          0.782              1.428              0.894
 Vibration    20          0.801              1.380              0.823
 Vibration    21          0.841              1.283              0.696
 Vibration    22          0.862              1.235              0.642
 Vibration    23          0.873              1.210              0.614
 Vibration    24          0.913              1.123              0.529
 Vibration    25          0.926              1.096              0.504
 Vibration    26          0.941              1.067              0.479

 Optimization completed.
    -- Stationary point found.
 Normal termination of Gaussian 09 at Thu Jan 12 13:44:22 2017.
