 Gaussian 09, Revision E.01,
 Gaussian 09:  ES64L-G09RevE.01 30-Nov-2015

 ----------------------------------------------------------------------
 # opt=(TS,CalcFC,NoEigenTest,MaxCycle=500,cartesian) Freq B3LYP 6-31G(
 d)
 ----------------------------------------------------------------------

 ------------------------
 boat3_Beta_B3LYP_6-31G_d
 ------------------------
 Symbolic Z-matrix:
 Charge =  0 Multiplicity = 1

 SCF Done:  E(RB3LYP) =  -839.950227383     A.U. after   14 cycles
 SCF Done:  E(RB3LYP) =  -839.950236740     A.U. after    9 cycles
 Optimization completed.
    -- Stationary point found.
 Normal termination of Gaussian 09 at Wed Jan 25 08:05:16 2017.

 --------------------------------------------------------------------
 #N Geom=AllCheck Guess=TCheck SCRF=Check GenChk RB3LYP/6-31G(d) Freq
 --------------------------------------------------------------------

 Structure from the checkpoint file:  "/scratch/10489869.yak.local/Gau-12919.chk"
 ------------------------
 boat3_Beta_B3LYP_6-31G_d
 ------------------------
 Charge =  0 Multiplicity = 1

                         Standard orientation:
 ---------------------------------------------------------------------
 Center     Atomic      Atomic             Coordinates (Angstroms)
 Number     Number       Type             X           Y           Z
 ---------------------------------------------------------------------
      1          6           0        0.577973   -0.939256   -0.383644
      2          6           0       -1.472404   -0.183838    1.003758
      3          8           0        0.715086    1.180996    0.844795
      4          6           0       -0.997781    1.192147    0.572105
      5          6           0        1.423143   -0.035857    0.530248
      6          6           0       -0.731308   -1.344277    0.294020
      7          1           0       -1.171467    1.950334    1.348809
      8          1           0       -0.465593   -2.069100    1.078774
      9          1           0       -2.533127   -0.231547    0.719776
     10          1           0        1.601205   -0.561922    1.478672
     11          1           0        0.337756   -0.384289   -1.301293
     12          6           0        2.770335    0.362183   -0.099004
     13          1           0        3.298867    1.050934    0.574595
     14          1           0        2.597739    0.884127   -1.044727
     15          8           0       -1.200556    1.519271   -0.673360
     16          8           0        3.585417   -0.767784   -0.423896
     17          1           0        3.853882   -1.194698    0.406015
     18          8           0       -1.289703   -0.245699    2.415903
     19          1           0       -1.837807   -0.972265    2.749246
     20          8           0       -1.598991   -1.965232   -0.652312
     21          1           0       -1.050126   -2.601860   -1.141957
     22          8           0        1.234368   -2.166602   -0.686131
     23          1           0        2.134956   -1.944321   -0.990173
     24          8           0        0.749287    2.877146   -0.846016
     25          1           0       -0.306491    2.412837   -0.938091
     26          1           0        0.938665    2.079974    0.079953
     27          1           0        0.676215    3.787748   -0.515905
     28          8           0       -3.627478    0.016761   -1.381526
     29          1           0       -2.932058    0.698646   -1.395027
     30          1           0       -3.101806   -0.802073   -1.393226
 ---------------------------------------------------------------------

 SCF Done:  E(RB3LYP) =  -839.950236740     A.U. after    1 cycles

 The electronic state is 1-A.
 Alpha  occ. eigenvalues --  -19.18749 -19.18683 -19.17425 -19.15966 -19.15803
 Alpha  occ. eigenvalues --  -19.15237 -19.13189 -19.08981 -10.29885 -10.26073
 Alpha  occ. eigenvalues --  -10.25934 -10.24633 -10.24607 -10.24489  -1.07388
 Alpha  occ. eigenvalues --   -1.05690  -1.04267  -1.03048  -1.01785  -1.01133
 Alpha  occ. eigenvalues --   -1.00461  -0.94944  -0.78800  -0.76524  -0.70676
 Alpha  occ. eigenvalues --   -0.65362  -0.63730  -0.57871  -0.56521  -0.55453
 Alpha  occ. eigenvalues --   -0.55124  -0.51722  -0.51393  -0.50288  -0.48506
 Alpha  occ. eigenvalues --   -0.47937  -0.47128  -0.45545  -0.44536  -0.43595
 Alpha  occ. eigenvalues --   -0.42260  -0.41666  -0.41171  -0.39355  -0.38692
 Alpha  occ. eigenvalues --   -0.36820  -0.36242  -0.34978  -0.34514  -0.33182
 Alpha  occ. eigenvalues --   -0.31766  -0.30001  -0.29533  -0.29082  -0.27526
 Alpha  occ. eigenvalues --   -0.26762  -0.26242  -0.24670
 Alpha virt. eigenvalues --    0.01936   0.04249   0.05678   0.06687   0.08175
 Alpha virt. eigenvalues --    0.09554   0.11682   0.12516   0.12860   0.13786
 Alpha virt. eigenvalues --    0.14741   0.15471   0.16597   0.17136   0.18204

 Mulliken charges:
               1
     1  C    0.086403
     2  C    0.046170
     3  O   -0.646935
     4  C    0.328303
     5  C    0.117885
     6  C    0.140936
     7  H    0.146146
     8  H    0.134185
     9  H    0.191429
    10  H    0.145037
    11  H    0.150412
    12  C   -0.092508
    13  H    0.153238
    14  H    0.184977
    15  O   -0.637548
    16  O   -0.617238
    17  H    0.405857
    18  O   -0.634326
    19  H    0.402474
    20  O   -0.650630
    21  H    0.415681
    22  O   -0.679294
    23  H    0.419758
    24  O   -0.829354
    25  H    0.468090
    26  H    0.474424
    27  H    0.408205
    28  O   -0.840798
    29  H    0.405020
    30  H    0.404001
 Sum of Mulliken charges =  -0.00000

 Dipole moment (field-independent basis, Debye):
    X=              5.0985    Y=              0.5107    Z=              2.9733  Tot=              5.9242
 Quadrupole moment (field-independent basis, Debye-Ang):
   XX=            -95.9881   YY=            -71.1940   ZZ=            -86.2902
   XY=              1.7422   XZ=             -4.0877   YZ=             -1.3181

  Exact polarizability: 106.569   0.140 101.013   1.325  -2.405  84.628
 Approx polarizability: 139.209  -1.266 137.602   7.186  -4.018 129.429

 ******    1 imaginary frequencies (negative Signs) ******

                      1                      2                      3
                      A                      A                      A
 Frequencies --  -1392.5678                27.7619                76.0455
 Red. masses --      1.1338                 6.4682                 7.2157
 Frc consts  --      1.2955                 0.0029                 0.0246
 IR Inten    --    269.5764                 0.3678                 2.2199

                      4                      5                      6
                      A                      A                      A
 Frequencies --     94.2172               104.0555               121.7819
 Red. masses --      6.8295                 5.4543                 6.2415
 Frc consts  --      0.0357                 0.0348                 0.0545
 IR Inten    --      8.0585                 5.3958                 0.3944

                      7                      8                      9
                      A                      A                      A
 Frequencies --    127.3109               151.9719               155.4290
 Red. masses --      5.8156                 3.7618                 4.4493
 Frc consts  --      0.0555                 0.0512                 0.0633
 IR Inten    --      2.0224                 1.2549                 1.2787

                     10                     11                     12
                      A                      A                      A
 Frequencies --    198.0307               224.4509               238.9264
 Red. masses --      5.2068                 4.2957                 5.1244
 Frc consts  --      0.1203                 0.1275                 0.1724
 IR Inten    --     10.5856                 5.1212                 2.7609

                     13                     14                     15
                      A                      A                      A
 Frequencies --    293.1788               302.4009               315.4212
 Red. masses --      1.2048                 4.3593                 3.0159
 Frc consts  --      0.0610                 0.2349                 0.1768
 IR Inten    --     85.0143                34.1461                56.9446

                     16                     17                     18
                      A                      A                      A
 Frequencies --    327.1318               353.0208               358.9591
 Red. masses --      2.1873                 1.7607                 1.2615
 Frc consts  --      0.1379                 0.1293                 0.0958
 IR Inten    --     23.3506               157.8095                73.3274

                     19                     20                     21
                      A                      A                      A
 Frequencies --    386.6883               409.8916               440.2712
 Red. masses --      4.3193                 5.2015                 2.5133
 Frc consts  --      0.3805                 0.5149                 0.2870
 IR Inten    --     24.2505                27.0854                16.3296

                     22                     23                     24
                      A                      A                      A
 Frequencies --    452.2189               508.4707               510.3802
 Red. masses --      1.3288                 1.8213                 3.3629
 Frc consts  --      0.1601                 0.2774                 0.5161
 IR Inten    --     66.4464               178.4936                17.5433

                     25                     26                     27
                      A                      A                      A
 Frequencies --    525.8851               542.2201               547.5053
 Red. masses --      4.2623                 1.8537                 2.7818
 Frc consts  --      0.6945                 0.3211                 0.4913
 IR Inten    --     11.8222                46.2715                54.8141

                     28                     29                     30
                      A                      A                      A
 Frequencies --    560.4422               572.4362               614.4905
 Red. masses --      2.4510                 1.5406                 3.9138
 Frc consts  --      0.4536                 0.2974                 0.8707
 IR Inten    --     32.9967                82.9192                61.7098

                     31                     32                     33
                      A                      A                      A
 Frequencies --    632.1487               639.1319               651.1869
 Red. masses --      1.2881                 1.1110                 1.4495
 Frc consts  --      0.3033                 0.2674                 0.3621
 IR Inten    --    108.3237               230.1761                52.1360

                     34                     35                     36
                      A                      A                      A
 Frequencies --    701.0707               795.2000               906.9520
 Red. masses --      3.9326                 4.4390                 1.9994
 Frc consts  --      1.1388                 1.6538                 0.9690
 IR Inten    --     75.0681                36.4560                 4.6711

                     37                     38                     39
                      A                      A                      A
 Frequencies --    930.7823              1016.2899              1022.3515
 Red. masses --      2.6315                 3.1989                 4.3825
 Frc consts  --      1.3432                 1.9466                 2.6988
 IR Inten    --     11.5959               108.8235               153.6998

                     40                     41                     42
                      A                      A                      A
 Frequencies --   1056.0448              1070.3657              1076.6081
 Red. masses --      2.7260                 4.1975                 3.6651
 Frc consts  --      1.7912                 2.8334                 2.5029
 IR Inten    --     68.7407                97.9645                99.1659

                     43                     44                     45
                      A                      A                      A
 Frequencies --   1104.7918              1118.2467              1121.5059
 Red. masses --      3.1477                 4.8855                 2.3755
 Frc consts  --      2.2636                 3.5994                 1.7604
 IR Inten    --     46.4404                81.9723                11.4815

                     46                     47                     48
                      A                      A                      A
 Frequencies --   1146.5236              1202.6950              1220.0873
 Red. masses --      2.7457                 1.3374                 1.2482
 Frc consts  --      2.1265                 1.1398                 1.0948
 IR Inten    --      4.5740                92.9123                70.6663

                     49                     50                     51
                      A                      A                      A
 Frequencies --   1259.0112              1264.8700              1293.1471
 Red. masses --      1.1526                 1.1706                 1.2394
 Frc consts  --      1.0764                 1.1034                 1.2211
 IR Inten    --   1306.8706               388.0894               143.2046

                     52                     53                     54
                      A                      A                      A
 Frequencies --   1297.7105              1318.7576              1349.9571
 Red. masses --      1.1478                 1.3214                 1.3075
 Frc consts  --      1.1389                 1.3540                 1.4038
 IR Inten    --     92.6363                21.4092               178.9157

                     55                     56                     57
                      A                      A                      A
 Frequencies --   1360.7132              1362.4949              1395.2056
 Red. masses --      1.1981                 1.2522                 1.2340
 Frc consts  --      1.3070                 1.3696                 1.4152
 IR Inten    --    159.9368               339.7508               180.0124

                     58                     59                     60
                      A                      A                      A
 Frequencies --   1407.4468              1416.4916              1423.4636
 Red. masses --      1.2558                 1.4898                 1.4817
 Frc consts  --      1.4656                 1.7612                 1.7689
 IR Inten    --    115.6587                29.6995                55.1153

                     61                     62                     63
                      A                      A                      A
 Frequencies --   1435.2843              1446.4038              1477.5679
 Red. masses --      1.3109                 1.3364                 1.4754
 Frc consts  --      1.5911                 1.6473                 1.8978
 IR Inten    --      5.1074                11.6674                78.5118

                     64                     65                     66
                      A                      A                      A
 Frequencies --   1496.3729              1537.3509              1557.4544
 Red. masses --      1.5757                 1.1100                 1.0907
 Frc consts  --      2.0787                 1.5456                 1.5587
 IR Inten    --    395.0691                 5.2977               349.4516

                     67                     68                     69
                      A                      A                      A
 Frequencies --   1596.6952              1618.9836              1760.8414
 Red. masses --      1.4074                 1.0910                 1.0799
 Frc consts  --      2.1140                 1.6849                 1.9728
 IR Inten    --    805.8581               225.4203               157.6052

                     70                     71                     72
                      A                      A                      A
 Frequencies --   1917.1178              3007.9367              3032.8126
 Red. masses --      1.0250                 1.0833                 1.0819
 Frc consts  --      2.2195                 5.7749                 5.8631
 IR Inten    --    143.1996                24.7745                 3.4487

                     73                     74                     75
                      A                      A                      A
 Frequencies --   3040.9824              3041.6974              3045.8498
 Red. masses --      1.0855                 1.0711                 1.0862
 Frc consts  --      5.9143                 5.8388                 5.9369
 IR Inten    --     72.9472                23.5804                13.5219

                     76                     77                     78
                      A                      A                      A
 Frequencies --   3049.6946              3127.8165              3640.4637
 Red. masses --      1.0862                 1.0993                 1.0659
 Frc consts  --      5.9524                 6.3366                 8.3231
 IR Inten    --     57.7232                16.5620               178.8336

                     79                     80                     81
                      A                      A                      A
 Frequencies --   3676.6327              3715.5995              3732.8663
 Red. masses --      1.0468                 1.0656                 1.0662
 Frc consts  --      8.3371                 8.6679                 8.7532
 IR Inten    --    108.2570                43.0840                26.4657

                     82                     83                     84
                      A                      A                      A
 Frequencies --   3755.2179              3757.1468              3766.0228
 Red. masses --      1.0792                 1.0668                 1.0653
 Frc consts  --      8.9664                 8.8729                 8.9021
 IR Inten    --     90.8252                22.4823                40.5259

 - Thermochemistry -
 -------------------
 Temperature   298.150 Kelvin.  Pressure   1.00000 Atm.
 Atom     1 has atomic number  6 and mass  12.00000

 Molecular mass:   216.08452 amu.
 Principal axes and moments of inertia in atomic units:
                           1         2         3
     Eigenvalues --  2346.627933581.553144374.57552
           X            0.99993   0.01149   0.00207
           Y           -0.01147   0.99987  -0.01154
           Z           -0.00220   0.01152   0.99993
 This molecule is an asymmetric top.
 Rotational symmetry number  1.
 Warning -- assumption of classical behavior for rotation
           may cause significant error
 Rotational temperatures (Kelvin)      0.03691     0.02418     0.01980
 Rotational constants (GHZ):           0.76908     0.50390     0.41255
    1 imaginary frequencies ignored.
 Zero-point vibrational energy     636036.8 (Joules/Mol)
                                  152.01646 (Kcal/Mol)
 Warning -- explicit consideration of  29 degrees of freedom as
           vibrations may cause significant error
 Vibrational temperatures:     39.94   109.41   135.56   149.71   175.22
          (Kelvin)            183.17   218.65   223.63   284.92   322.93
                              343.76   421.82   435.09   453.82   470.67
                              507.92   516.46   556.36   589.74   633.45
                              650.64   731.58   734.32   756.63   780.13
                              787.74   806.35   823.61   884.11   909.52
                              919.57   936.91  1008.68  1144.11  1304.90
                             1339.19  1462.21  1470.93  1519.41  1540.02
                             1549.00  1589.55  1608.91  1613.59  1649.59
                             1730.41  1755.43  1811.43  1819.86  1860.55
                             1867.11  1897.40  1942.28  1957.76  1960.32
                             2007.39  2025.00  2038.01  2048.04  2065.05
                             2081.05  2125.89  2152.94  2211.90  2240.83
                             2297.29  2329.35  2533.45  2758.30  4327.74
                             4363.54  4375.29  4376.32  4382.29  4387.82
                             4500.22  5237.81  5289.85  5345.91  5370.76
                             5402.91  5405.69  5418.46

 Zero-point correction=                           0.242254 (Hartree/Particle)
 Thermal correction to Energy=                    0.258641
 Thermal correction to Enthalpy=                  0.259585
 Thermal correction to Gibbs Free Energy=         0.199325
 Sum of electronic and zero-point Energies=           -839.707983
 Sum of electronic and thermal Energies=              -839.691596
 Sum of electronic and thermal Enthalpies=            -839.690651
 Sum of electronic and thermal Free Energies=         -839.750911

                     E (Thermal)             CV                S
                      KCal/Mol        Cal/Mol-Kelvin    Cal/Mol-Kelvin
 Total                  162.300             62.009            126.828
 Electronic               0.000              0.000              0.000
 Translational            0.889              2.981             42.015
 Rotational               0.889              2.981             31.975
 Vibrational            160.522             56.047             52.838
 Vibration     1          0.593              1.984              5.983
 Vibration     2          0.599              1.965              3.990
 Vibration     3          0.603              1.953              3.571
 Vibration     4          0.605              1.946              3.377
 Vibration     5          0.609              1.931              3.072
 Vibration     6          0.611              1.926              2.986
 Vibration     7          0.619              1.900              2.647
 Vibration     8          0.620              1.897              2.605
 Vibration     9          0.637              1.843              2.151
 Vibration    10          0.649              1.804              1.923
 Vibration    11          0.657              1.781              1.811
 Vibration    12          0.688              1.686              1.456
 Vibration    13          0.694              1.669              1.404
 Vibration    14          0.703              1.644              1.334
 Vibration    15          0.711              1.621              1.274
 Vibration    16          0.729              1.569              1.153
 Vibration    17          0.734              1.557              1.127
 Vibration    18          0.755              1.499              1.013
 Vibration    19          0.774              1.449              0.927
 Vibration    20          0.800              1.382              0.826
 Vibration    21          0.811              1.356              0.789
 Vibration    22          0.864              1.231              0.637
 Vibration    23          0.866              1.227              0.633
 Vibration    24          0.881              1.193              0.596
 Vibration    25          0.897              1.157              0.561
 Vibration    26          0.903              1.145              0.549
 Vibration    27          0.916              1.117              0.523
 Vibration    28          0.929              1.091              0.500
 Vibration    29          0.974              1.001              0.425

 Optimization completed.
    -- Stationary point found.
 Normal termination of Gaussian 09 at Wed Jan 25 08:35:00 2017.
