 Gaussian 09, Revision E.01,
 Gaussian 09:  ES64L-G09RevE.01 30-Nov-2015

 -----------------------------------------
 # opt=(MaxCycle=1000) freq B3LYP/6-31G(d)
 -----------------------------------------

 ---------------------------------------------------
 ./chairs/2/glo_1w_alpha_ircf_chair2_B3LYP_631Gd.out
 ---------------------------------------------------
 Symbolic Z-matrix:
 Charge =  0 Multiplicity = 1

 SCF Done:  E(RB3LYP) =  -839.985703516     A.U. after   14 cycles
 SCF Done:  E(RB3LYP) =  -839.993981200     A.U. after   11 cycles
 SCF Done:  E(RB3LYP) =  -839.999194346     A.U. after   11 cycles
 SCF Done:  E(RB3LYP) =  -840.001136178     A.U. after   11 cycles
 SCF Done:  E(RB3LYP) =  -840.001414455     A.U. after   11 cycles
 SCF Done:  E(RB3LYP) =  -840.002164139     A.U. after   11 cycles
 SCF Done:  E(RB3LYP) =  -840.002302600     A.U. after   10 cycles
 SCF Done:  E(RB3LYP) =  -840.002389197     A.U. after   10 cycles
 SCF Done:  E(RB3LYP) =  -840.002415777     A.U. after    9 cycles
 SCF Done:  E(RB3LYP) =  -840.002432605     A.U. after    8 cycles
 SCF Done:  E(RB3LYP) =  -840.002460859     A.U. after    8 cycles
 SCF Done:  E(RB3LYP) =  -840.002464921     A.U. after    7 cycles
 SCF Done:  E(RB3LYP) =  -840.002467056     A.U. after    7 cycles
 SCF Done:  E(RB3LYP) =  -840.002469691     A.U. after    7 cycles
 SCF Done:  E(RB3LYP) =  -840.002471772     A.U. after    7 cycles
 SCF Done:  E(RB3LYP) =  -840.002472779     A.U. after    7 cycles
 SCF Done:  E(RB3LYP) =  -840.002473050     A.U. after    7 cycles
 SCF Done:  E(RB3LYP) =  -840.002473175     A.U. after    7 cycles
 SCF Done:  E(RB3LYP) =  -840.002473200     A.U. after    6 cycles
 Optimization completed.
    -- Stationary point found.
 Normal termination of Gaussian 09 at Sun Jan 15 13:22:54 2017.

 --------------------------------------------------------------------
 #N Geom=AllCheck Guess=TCheck SCRF=Check GenChk RB3LYP/6-31G(d) Freq
 --------------------------------------------------------------------

 Structure from the checkpoint file:  "/scratch/10462978.yak.local/Gau-23722.chk"
 ---------------------------------------------------
 ./chairs/2/glo_1w_alpha_ircf_chair2_B3LYP_631Gd.out
 ---------------------------------------------------
 Charge =  0 Multiplicity = 1

                         Standard orientation:
 ---------------------------------------------------------------------
 Center     Atomic      Atomic             Coordinates (Angstroms)
 Number     Number       Type             X           Y           Z
 ---------------------------------------------------------------------
      1          6           0       -1.369124   -0.114821   -0.772194
      2          8           0       -1.131927    0.666975    0.407599
      3          6           0       -0.827554   -1.539984   -0.600366
      4          6           0        0.651937   -1.535671   -0.187001
      5          6           0        0.885939   -0.593744    1.010706
      6          6           0        0.250828    0.796044    0.821994
      7          1           0       -0.945330   -2.064914   -1.564069
      8          1           0        1.960526   -0.457772    1.164129
      9          1           0        0.193942    1.238806    1.820097
     10          1           0        0.941373   -2.545583    0.127681
     11          8           0       -1.569443   -2.203234    0.415823
     12          8           0        1.458637   -1.111901   -1.304365
     13          8           0        0.391164   -1.226589    2.180883
     14          1           0        1.386762   -1.787268   -1.997823
     15          1           0       -2.478606   -1.857455    0.320539
     16          1           0       -0.510534   -1.533146    1.965166
     17          6           0        1.026412    1.788824   -0.067813
     18          8           0        2.266657    2.121720    0.517321
     19          1           0        0.424743    2.704307   -0.137921
     20          1           0        1.150024    1.399209   -1.086874
     21          1           0        2.939739    1.499085    0.164448
     22          1           0       -0.901899    0.375452   -1.639099
     23          8           0       -2.747027   -0.241428   -0.923721
     24          1           0       -3.141308    0.663644   -0.855630
     25          1           0       -2.424267    2.117579    0.238656
     26          8           0       -3.254011    2.352263   -0.226831
     27          1           0       -3.923976    2.387187    0.473420
     28          8           0        3.875958    0.234174   -0.767364
     29          1           0        4.161224    0.672000   -1.583461
     30          1           0        3.136894   -0.350848   -1.035964
 ---------------------------------------------------------------------

 SCF Done:  E(RB3LYP) =  -840.002473200     A.U. after    1 cycles

 The electronic state is 1-A.
 Alpha  occ. eigenvalues --  -19.19624 -19.17188 -19.16752 -19.16450 -19.16012
 Alpha  occ. eigenvalues --  -19.15662 -19.13306 -19.11870 -10.29820 -10.26081
 Alpha  occ. eigenvalues --  -10.25602 -10.24032 -10.23548 -10.22339  -1.08614
 Alpha  occ. eigenvalues --   -1.06248  -1.03687  -1.02257  -1.01750  -1.01560
 Alpha  occ. eigenvalues --   -1.00212  -0.99272  -0.78622  -0.76345  -0.69429
 Alpha  occ. eigenvalues --   -0.65575  -0.63578  -0.57725  -0.54995  -0.54651
 Alpha  occ. eigenvalues --   -0.54432  -0.53185  -0.52873  -0.51301  -0.50591
 Alpha  occ. eigenvalues --   -0.49028  -0.46103  -0.45567  -0.43562  -0.42653
 Alpha  occ. eigenvalues --   -0.41882  -0.41472  -0.40180  -0.39640  -0.38443
 Alpha  occ. eigenvalues --   -0.37069  -0.36880  -0.34318  -0.33247  -0.33054
 Alpha  occ. eigenvalues --   -0.32166  -0.31823  -0.30322  -0.29585  -0.28775
 Alpha  occ. eigenvalues --   -0.28338  -0.26618  -0.23933
 Alpha virt. eigenvalues --    0.02359   0.05384   0.06826   0.08025   0.10231
 Alpha virt. eigenvalues --    0.11350   0.11882   0.12495   0.14293   0.14840
 Alpha virt. eigenvalues --    0.14999   0.16234   0.17396   0.17544   0.18929

 Mulliken charges:
               1
     1  C    0.347324
     2  O   -0.547120
     3  C    0.100485
     4  C    0.072411
     5  C    0.101587
     6  C    0.101442
     7  H    0.124269
     8  H    0.162423
     9  H    0.167214
    10  H    0.164220
    11  O   -0.650725
    12  O   -0.649808
    13  O   -0.646542
    14  H    0.410336
    15  H    0.422797
    16  H    0.416001
    17  C   -0.066913
    18  O   -0.655907
    19  H    0.137809
    20  H    0.121908
    21  H    0.433778
    22  H    0.127875
    23  O   -0.677655
    24  H    0.431929
    25  H    0.423684
    26  O   -0.795465
    27  H    0.401937
    28  O   -0.807802
    29  H    0.397200
    30  H    0.431312
 Sum of Mulliken charges =  -0.00000

 Dipole moment (field-independent basis, Debye):
    X=             -1.4725    Y=             -1.4269    Z=             -3.8250  Tot=              4.3399
 Quadrupole moment (field-independent basis, Debye-Ang):
   XX=            -81.3880   YY=            -87.7801   ZZ=            -81.8718
   XY=             -6.6100   XZ=            -17.8302   YZ=              7.0674

  Exact polarizability: 105.124   0.958  92.441  -1.502   2.851  85.403
 Approx polarizability: 136.805   3.073 122.752  -1.275   2.757 127.207

                      1                      2                      3
                      A                      A                      A
 Frequencies --     34.7808                49.3913                88.4538
 Red. masses --      5.6745                 5.7612                 6.1361
 Frc consts  --      0.0040                 0.0083                 0.0283
 IR Inten    --      4.0853                 1.2931                 5.5582

                      4                      5                      6
                      A                      A                      A
 Frequencies --    101.6208               137.1446               141.5126
 Red. masses --      6.4691                 4.8281                 5.1329
 Frc consts  --      0.0394                 0.0535                 0.0606
 IR Inten    --      5.9371                 7.9800                 3.7258

                      7                      8                      9
                      A                      A                      A
 Frequencies --    161.2099               181.7224               205.6890
 Red. masses --      5.5722                 5.4963                 6.6962
 Frc consts  --      0.0853                 0.1069                 0.1669
 IR Inten    --      2.6298                 0.8600                 9.9993

                     10                     11                     12
                      A                      A                      A
 Frequencies --    225.5610               231.2175               247.2673
 Red. masses --      3.4414                 4.5864                 4.0019
 Frc consts  --      0.1032                 0.1445                 0.1442
 IR Inten    --      0.7963                 0.6237                 2.2740

                     13                     14                     15
                      A                      A                      A
 Frequencies --    258.7032               261.5819               284.2639
 Red. masses --      3.1793                 1.1841                 1.1641
 Frc consts  --      0.1254                 0.0477                 0.0554
 IR Inten    --     59.7919               122.0438               110.5765

                     16                     17                     18
                      A                      A                      A
 Frequencies --    317.0121               326.7353               335.7745
 Red. masses --      1.5120                 2.9210                 1.7431
 Frc consts  --      0.0895                 0.1837                 0.1158
 IR Inten    --     41.2427                64.2442                63.3494

                     19                     20                     21
                      A                      A                      A
 Frequencies --    360.7125               369.2432               391.6963
 Red. masses --      1.3262                 1.9384                 4.8720
 Frc consts  --      0.1017                 0.1557                 0.4404
 IR Inten    --      3.8219                40.9604                24.3812

                     22                     23                     24
                      A                      A                      A
 Frequencies --    400.9416               446.3287               480.8608
 Red. masses --      3.2205                 3.7694                 1.2241
 Frc consts  --      0.3050                 0.4424                 0.1668
 IR Inten    --     62.3656                23.7360                10.0506

                     25                     26                     27
                      A                      A                      A
 Frequencies --    502.1921               533.3213               558.7488
 Red. masses --      4.5225                 4.5349                 4.2433
 Frc consts  --      0.6720                 0.7600                 0.7805
 IR Inten    --      5.6340                16.9166                10.7174

                     28                     29                     30
                      A                      A                      A
 Frequencies --    609.6136               629.0122               654.6181
 Red. masses --      2.9928                 1.1881                 1.2541
 Frc consts  --      0.6553                 0.2770                 0.3166
 IR Inten    --      6.6847               203.9408               159.1809

                     31                     32                     33
                      A                      A                      A
 Frequencies --    686.6640               734.8177               792.3577
 Red. masses --      1.1152                 4.5679                 1.0999
 Frc consts  --      0.3098                 1.4532                 0.4069
 IR Inten    --    223.6404                51.2681               106.2501

                     34                     35                     36
                      A                      A                      A
 Frequencies --    796.7446               839.1805               861.1818
 Red. masses --      2.4696                 1.3732                 2.0658
 Frc consts  --      0.9237                 0.5698                 0.9027
 IR Inten    --      4.7171                50.9901               111.3599

                     37                     38                     39
                      A                      A                      A
 Frequencies --    885.2222               924.6170              1018.7533
 Red. masses --      4.6559                 2.3899                 2.3497
 Frc consts  --      2.1496                 1.2038                 1.4368
 IR Inten    --     33.2677                 9.7436                 4.6959

                     40                     41                     42
                      A                      A                      A
 Frequencies --   1038.7745              1061.5038              1071.8626
 Red. masses --      3.3417                 4.7455                 2.5850
 Frc consts  --      2.1245                 3.1504                 1.7498
 IR Inten    --    166.3346               132.2000                36.8023

                     43                     44                     45
                      A                      A                      A
 Frequencies --   1081.2168              1104.0072              1111.0140
 Red. masses --      5.4930                 3.3471                 4.5367
 Frc consts  --      3.7834                 2.4036                 3.2994
 IR Inten    --     93.1379                98.4801                37.6242

                     46                     47                     48
                      A                      A                      A
 Frequencies --   1124.9054              1134.4321              1173.0517
 Red. masses --      2.3102                 3.2608                 3.6659
 Frc consts  --      1.7224                 2.4724                 2.9721
 IR Inten    --     48.0437                12.5528                50.6928

                     49                     50                     51
                      A                      A                      A
 Frequencies --   1223.8409              1256.6521              1258.1936
 Red. masses --      1.2027                 1.1226                 1.2394
 Frc consts  --      1.0613                 1.0445                 1.1560
 IR Inten    --     36.9369                38.7071                20.7519

                     52                     53                     54
                      A                      A                      A
 Frequencies --   1317.1338              1330.9632              1341.0469
 Red. masses --      1.2494                 1.1720                 1.2163
 Frc consts  --      1.2770                 1.2233                 1.2888
 IR Inten    --      5.0341                51.7704                10.3264

                     55                     56                     57
                      A                      A                      A
 Frequencies --   1349.8175              1380.9150              1384.5512
 Red. masses --      1.2242                 1.2421                 1.5407
 Frc consts  --      1.3141                 1.3956                 1.7402
 IR Inten    --     28.5967                23.2018                14.6336

                     58                     59                     60
                      A                      A                      A
 Frequencies --   1407.4072              1412.6199              1426.1496
 Red. masses --      1.3671                 1.2818                 1.3830
 Frc consts  --      1.5954                 1.5070                 1.6573
 IR Inten    --      9.7758                 6.7893                26.3820

                     61                     62                     63
                      A                      A                      A
 Frequencies --   1435.4450              1471.5225              1492.2985
 Red. masses --      1.3834                 1.5583                 1.2130
 Frc consts  --      1.6794                 1.9881                 1.5915
 IR Inten    --      6.1982                50.2791                94.7513

                     64                     65                     66
                      A                      A                      A
 Frequencies --   1502.2000              1536.0502              1539.2393
 Red. masses --      1.1832                 1.3482                 1.0968
 Frc consts  --      1.5732                 1.8742                 1.5311
 IR Inten    --     42.8210                58.9443                11.2407

                     67                     68                     69
                      A                      A                      A
 Frequencies --   1722.6442              1726.2789              2981.2000
 Red. masses --      1.0764                 1.0748                 1.0839
 Frc consts  --      1.8819                 1.8870                 5.6759
 IR Inten    --     51.5608                52.6815                57.4284

                     70                     71                     72
                      A                      A                      A
 Frequencies --   3022.6001              3037.5361              3066.7055
 Red. masses --      1.0791                 1.0618                 1.0863
 Frc consts  --      5.8085                 5.7723                 6.0195
 IR Inten    --     37.0819                68.4799                34.0266

                     73                     74                     75
                      A                      A                      A
 Frequencies --   3075.1552              3106.1495              3111.3368
 Red. masses --      1.1063                 1.0866                 1.0884
 Frc consts  --      6.1638                 6.1767                 6.2080
 IR Inten    --     32.3407                18.8266                24.6747

                     76                     77                     78
                      A                      A                      A
 Frequencies --   3400.6757              3509.3377              3591.2389
 Red. masses --      1.0669                 1.0663                 1.0567
 Frc consts  --      7.2698                 7.7370                 8.0294
 IR Inten    --    494.1114               333.6484               551.7874

                     79                     80                     81
                      A                      A                      A
 Frequencies --   3598.9382              3634.2108              3649.7346
 Red. masses --      1.0552                 1.0660                 1.0646
 Frc consts  --      8.0524                 8.2951                 8.3551
 IR Inten    --    275.6716               166.8766                31.0884

                     82                     83                     84
                      A                      A                      A
 Frequencies --   3737.0135              3798.2211              3802.9553
 Red. masses --      1.0663                 1.0724                 1.0721
 Frc consts  --      8.7735                 9.1149                 9.1355
 IR Inten    --     24.9615                91.2890                83.9383

 - Thermochemistry -
 -------------------
 Temperature   298.150 Kelvin.  Pressure   1.00000 Atm.
 Atom     1 has atomic number  6 and mass  12.00000

 Molecular mass:   216.08452 amu.
 Principal axes and moments of inertia in atomic units:
                           1         2         3
     Eigenvalues --  2269.140413729.609684622.00399
           X            0.99979  -0.01489  -0.01412
           Y            0.01504   0.99983   0.01085
           Z            0.01395  -0.01106   0.99984
 This molecule is an asymmetric top.
 Rotational symmetry number  1.
 Warning -- assumption of classical behavior for rotation
           may cause significant error
 Rotational temperatures (Kelvin)      0.03817     0.02322     0.01874
 Rotational constants (GHZ):           0.79534     0.48390     0.39047
 Zero-point vibrational energy     655584.8 (Joules/Mol)
                                  156.68852 (Kcal/Mol)
 Warning -- explicit consideration of  28 degrees of freedom as
           vibrations may cause significant error
 Vibrational temperatures:     50.04    71.06   127.27   146.21   197.32
          (Kelvin)            203.60   231.94   261.46   295.94   324.53
                              332.67   355.76   372.22   376.36   408.99
                              456.11   470.10   483.10   518.98   531.26
                              563.56   576.86   642.17   691.85   722.54
                              767.33   803.91   877.10   905.01   941.85
                              987.96  1057.24  1140.02  1146.34  1207.39
                             1239.05  1273.64  1330.32  1465.76  1494.56
                             1527.27  1542.17  1555.63  1588.42  1598.50
                             1618.49  1632.19  1687.76  1760.83  1808.04
                             1810.26  1895.06  1914.96  1929.46  1942.08
                             1986.83  1992.06  2024.94  2032.44  2051.91
                             2065.28  2117.19  2147.08  2161.33  2210.03
                             2214.62  2478.50  2483.73  4289.28  4348.84
                             4370.33  4412.30  4424.46  4469.05  4476.51
                             4892.81  5049.15  5166.99  5178.06  5228.81
                             5251.15  5376.72  5464.79  5471.60

 Zero-point correction=                           0.249699 (Hartree/Particle)
 Thermal correction to Energy=                    0.266776
 Thermal correction to Enthalpy=                  0.267720
 Thermal correction to Gibbs Free Energy=         0.206154
 Sum of electronic and zero-point Energies=           -839.752774
 Sum of electronic and thermal Energies=              -839.735697
 Sum of electronic and thermal Enthalpies=            -839.734753
 Sum of electronic and thermal Free Energies=         -839.796320

                     E (Thermal)             CV                S
                      KCal/Mol        Cal/Mol-Kelvin    Cal/Mol-Kelvin
 Total                  167.404             63.887            129.578
 Electronic               0.000              0.000              0.000
 Translational            0.889              2.981             42.015
 Rotational               0.889              2.981             32.037
 Vibrational            165.627             57.925             55.526
 Vibration     1          0.594              1.983              5.536
 Vibration     2          0.595              1.978              4.842
 Vibration     3          0.601              1.957              3.694
 Vibration     4          0.604              1.948              3.423
 Vibration     5          0.614              1.916              2.843
 Vibration     6          0.615              1.912              2.783
 Vibration     7          0.622              1.890              2.536
 Vibration     8          0.630              1.865              2.311
 Vibration     9          0.640              1.832              2.082
 Vibration    10          0.650              1.802              1.914
 Vibration    11          0.653              1.793              1.869
 Vibration    12          0.661              1.767              1.750
 Vibration    13          0.668              1.748              1.671
 Vibration    14          0.669              1.743              1.651
 Vibration    15          0.683              1.703              1.508
 Vibration    16          0.704              1.641              1.325
 Vibration    17          0.710              1.622              1.276
 Vibration    18          0.717              1.604              1.232
 Vibration    19          0.735              1.553              1.119
 Vibration    20          0.742              1.535              1.083
 Vibration    21          0.759              1.488              0.994
 Vibration    22          0.767              1.468              0.959
 Vibration    23          0.806              1.369              0.807
 Vibration    24          0.837              1.293              0.708
 Vibration    25          0.858              1.245              0.653
 Vibration    26          0.888              1.176              0.580
 Vibration    27          0.914              1.121              0.526
 Vibration    28          0.969              1.011              0.433

 Normal termination of Gaussian 09 at Sun Jan 15 13:41:23 2017.
