 Gaussian 09, Revision D.01,
 Gaussian 09:  ES64L-G09RevD.01 24-Apr-2013

 ------------------------------------------------------
 # opt=(modredundant,MaxCycle=1000) freq B3LYP/6-31G(d)
 ------------------------------------------------------

 ------------------------------------------------------------------
 ./opt_IRC/b3lyp/boats/6/glo_2w_beta_ircf_boat6_B3LYP_631Gd_opt.out
 ------------------------------------------------------------------
 Symbolic Z-matrix:
 Charge =  0 Multiplicity = 1

 SCF Done:  E(RB3LYP) =  -839.979136231     A.U. after   13 cycles
 SCF Done:  E(RB3LYP) =  -839.989218788     A.U. after   12 cycles
 SCF Done:  E(RB3LYP) =  -839.990935753     A.U. after   11 cycles
 SCF Done:  E(RB3LYP) =  -839.991671491     A.U. after   11 cycles
 SCF Done:  E(RB3LYP) =  -839.992426426     A.U. after   12 cycles
 SCF Done:  E(RB3LYP) =  -839.993563369     A.U. after   11 cycles
 SCF Done:  E(RB3LYP) =  -839.994188576     A.U. after   13 cycles
 SCF Done:  E(RB3LYP) =  -839.995477342     A.U. after   10 cycles
 SCF Done:  E(RB3LYP) =  -839.996046883     A.U. after   11 cycles
 SCF Done:  E(RB3LYP) =  -839.996333301     A.U. after   11 cycles
 SCF Done:  E(RB3LYP) =  -839.997151988     A.U. after   11 cycles
 SCF Done:  E(RB3LYP) =  -839.997452358     A.U. after   11 cycles
 SCF Done:  E(RB3LYP) =  -839.997474552     A.U. after    9 cycles
 SCF Done:  E(RB3LYP) =  -839.997489304     A.U. after    9 cycles
 SCF Done:  E(RB3LYP) =  -839.997499425     A.U. after    9 cycles
 SCF Done:  E(RB3LYP) =  -839.997502949     A.U. after    9 cycles
 SCF Done:  E(RB3LYP) =  -839.997504269     A.U. after    9 cycles
 SCF Done:  E(RB3LYP) =  -839.997504936     A.U. after    7 cycles
 SCF Done:  E(RB3LYP) =  -839.997505062     A.U. after    7 cycles
 Optimization completed.
    -- Stationary point found.
 Normal termination of Gaussian 09 at Tue Jan 24 19:36:34 2017.

 --------------------------------------------------------------------
 #N Geom=AllCheck Guess=TCheck SCRF=Check GenChk RB3LYP/6-31G(d) Freq
 --------------------------------------------------------------------

 Structure from the checkpoint file:  "/home/iawad/Gau-10098.chk"
 ------------------------------------------------------------------
 ./opt_IRC/b3lyp/boats/6/glo_2w_beta_ircf_boat6_B3LYP_631Gd_opt.out
 ------------------------------------------------------------------
 Charge =  0 Multiplicity = 1

                         Standard orientation:
 ---------------------------------------------------------------------
 Center     Atomic      Atomic             Coordinates (Angstroms)
 Number     Number       Type             X           Y           Z
 ---------------------------------------------------------------------
      1          6           0        0.215496    1.166231    0.141773
      2          6           0        2.165560   -0.462446   -0.241711
      3          6           0        1.454159    0.848120   -0.703359
      4          6           0        1.450264   -1.123475    0.955408
      5          1           0        1.837797   -2.145387    1.064433
      6          1           0        3.182705   -0.185843    0.069831
      7          1           0        0.529992    1.498769    1.136619
      8          1           0        1.133073    0.669302   -1.740699
      9          6           0       -0.047306   -1.226780    0.665603
     10          1           0       -0.592395   -1.529963    1.570020
     11          8           0       -0.621150    0.013248    0.244633
     12          6           0       -0.635923    2.246288   -0.503816
     13          1           0       -0.040074    3.162752   -0.588295
     14          1           0       -0.934988    1.920500   -1.511252
     15          8           0       -1.790441    2.456200    0.319608
     16          1           0       -2.336213    3.141326   -0.095908
     17          8           0       -0.193866   -2.172703   -0.356642
     18          8           0        1.593810   -0.384936    2.164125
     19          1           0        2.542128   -0.294105    2.345445
     20          8           0        2.304355   -1.387800   -1.307681
     21          1           0        1.438579   -1.839971   -1.375340
     22          8           0        2.303107    1.993288   -0.630311
     23          1           0        3.020753    1.863529   -1.269945
     24          8           0       -3.643336    0.294645    0.296062
     25          1           0       -3.144529   -1.232626   -0.405482
     26          1           0       -2.851419    0.877715    0.330261
     27          1           0       -3.825620    0.093904    1.226564
     28          8           0       -2.866785   -2.112694   -0.773729
     29          1           0       -1.166324   -2.219415   -0.573871
     30          1           0       -3.092521   -2.062102   -1.714284
 ---------------------------------------------------------------------

 SCF Done:  E(RB3LYP) =  -839.997505062     A.U. after    1 cycles

 The electronic state is 1-A.
 Alpha  occ. eigenvalues --  -19.17050 -19.15543 -19.15326 -19.14892 -19.14591
 Alpha  occ. eigenvalues --  -19.13722 -19.13414 -19.12874 -10.27884 -10.24074
 Alpha  occ. eigenvalues --  -10.23701 -10.23608 -10.23580 -10.23404  -1.06337
 Alpha  occ. eigenvalues --   -1.03778  -1.02734  -1.02454  -1.00605  -1.00505
 Alpha  occ. eigenvalues --   -0.99318  -0.98334  -0.77805  -0.75819  -0.69298
 Alpha  occ. eigenvalues --   -0.63988  -0.62313  -0.55767  -0.54874  -0.53658
 Alpha  occ. eigenvalues --   -0.52679  -0.52204  -0.51678  -0.51427  -0.48482
 Alpha  occ. eigenvalues --   -0.46841  -0.45577  -0.45382  -0.42323  -0.41154
 Alpha  occ. eigenvalues --   -0.40619  -0.40513  -0.39633  -0.38468  -0.37600
 Alpha  occ. eigenvalues --   -0.36097  -0.35370  -0.34762  -0.34148  -0.30856
 Alpha  occ. eigenvalues --   -0.30124  -0.29701  -0.28732  -0.28546  -0.28243
 Alpha  occ. eigenvalues --   -0.27286  -0.25591  -0.24422
 Alpha virt. eigenvalues --    0.04735   0.06154   0.07212   0.07506   0.09952
 Alpha virt. eigenvalues --    0.10300   0.12088   0.13747   0.14381   0.15210
 Alpha virt. eigenvalues --    0.15834   0.16731   0.17779   0.18336   0.19374

 Mulliken charges:
               1
     1  C    0.143927
     2  C    0.092576
     3  C    0.101074
     4  C    0.050254
     5  H    0.150810
     6  H    0.122615
     7  H    0.167557
     8  H    0.127711
     9  C    0.357799
    10  H    0.131031
    11  O   -0.540608
    12  C   -0.057484
    13  H    0.160330
    14  H    0.129207
    15  O   -0.628019
    16  H    0.407069
    17  O   -0.679785
    18  O   -0.627383
    19  H    0.399329
    20  O   -0.658466
    21  H    0.420524
    22  O   -0.642390
    23  H    0.398910
    24  O   -0.825157
    25  H    0.439553
    26  H    0.450260
    27  H    0.397966
    28  O   -0.828283
    29  H    0.446331
    30  H    0.392743
 Sum of Mulliken charges =   0.00000

 Dipole moment (field-independent basis, Debye):
    X=             -0.1798    Y=              2.9407    Z=             -0.6557  Tot=              3.0182
 Quadrupole moment (field-independent basis, Debye-Ang):
   XX=            -76.7428   YY=            -84.3541   ZZ=            -77.7674
   XY=             -2.6301   XZ=              4.4724   YZ=             -5.1948

  Exact polarizability: 101.654   0.458  96.914  -0.406   0.258  84.653
 Approx polarizability: 129.617   2.996 128.318  -1.411   6.317 123.357

 ******    1 imaginary frequencies (negative Signs) ******

                      1                      2                      3
                      A                      A                      A
 Frequencies --    -53.1944                37.6256                42.1931
 Red. masses --      6.6947                 4.9388                 4.9295
 Frc consts  --      0.0112                 0.0041                 0.0052
 IR Inten    --      4.5607                 5.2048                 3.3756

                      4                      5                      6
                      A                      A                      A
 Frequencies --     76.2445                92.6623               132.2228
 Red. masses --      5.6106                 7.0618                 4.5714
 Frc consts  --      0.0192                 0.0357                 0.0471
 IR Inten    --      1.8077                 2.6014                 8.2286

                      7                      8                      9
                      A                      A                      A
 Frequencies --    157.6515               173.9760               192.9264
 Red. masses --      5.7043                 3.5467                 2.6086
 Frc consts  --      0.0835                 0.0632                 0.0572
 IR Inten    --      4.7606                 0.0333                 8.5448

                     10                     11                     12
                      A                      A                      A
 Frequencies --    204.3779               219.4650               247.8041
 Red. masses --      1.6495                 2.5200                 5.1942
 Frc consts  --      0.0406                 0.0715                 0.1879
 IR Inten    --     42.8013                10.2110                 0.7613

                     13                     14                     15
                      A                      A                      A
 Frequencies --    266.6386               275.8132               282.2432
 Red. masses --      4.0866                 1.9353                 2.1943
 Frc consts  --      0.1712                 0.0867                 0.1030
 IR Inten    --      8.1652               127.4383                61.2037

                     16                     17                     18
                      A                      A                      A
 Frequencies --    289.7866               310.8527               328.6012
 Red. masses --      1.2514                 3.2312                 1.1735
 Frc consts  --      0.0619                 0.1840                 0.0747
 IR Inten    --    195.2754                90.2096                55.7676

                     19                     20                     21
                      A                      A                      A
 Frequencies --    337.9687               357.9810               379.8816
 Red. masses --      2.2314                 1.7518                 4.1571
 Frc consts  --      0.1502                 0.1323                 0.3535
 IR Inten    --     58.0585                81.5356                13.3496

                     22                     23                     24
                      A                      A                      A
 Frequencies --    426.3493               451.1002               462.3765
 Red. masses --      1.1213                 5.3738                 4.0313
 Frc consts  --      0.1201                 0.6443                 0.5078
 IR Inten    --     22.7901                 7.5336                 8.2552

                     25                     26                     27
                      A                      A                      A
 Frequencies --    483.0224               501.1225               533.7621
 Red. masses --      3.3127                 3.8602                 5.6587
 Frc consts  --      0.4554                 0.5711                 0.9499
 IR Inten    --      2.3065                 4.9796                 6.8494

                     28                     29                     30
                      A                      A                      A
 Frequencies --    550.2729               587.6877               599.1893
 Red. masses --      1.1749                 3.1665                 4.3027
 Frc consts  --      0.2096                 0.6443                 0.9102
 IR Inten    --     27.1202                 6.4223                 7.4337

                     31                     32                     33
                      A                      A                      A
 Frequencies --    622.2966               648.5085               807.2137
 Red. masses --      1.1151                 1.2973                 1.2563
 Frc consts  --      0.2544                 0.3215                 0.4823
 IR Inten    --    102.6760                83.2070               193.7651

                     34                     35                     36
                      A                      A                      A
 Frequencies --    815.7085               857.4901               914.1425
 Red. masses --      2.7494                 2.8295                 2.5551
 Frc consts  --      1.0778                 1.2258                 1.2580
 IR Inten    --      2.2770                29.9913                 6.9715

                     37                     38                     39
                      A                      A                      A
 Frequencies --    929.3934               961.6289              1032.0026
 Red. masses --      1.1697                 2.6876                 3.4235
 Frc consts  --      0.5953                 1.4643                 2.1482
 IR Inten    --    229.5830                56.5854                 2.7444

                     40                     41                     42
                      A                      A                      A
 Frequencies --   1053.9300              1067.1691              1086.0345
 Red. masses --      2.4371                 3.9323                 3.5777
 Frc consts  --      1.5950                 2.6386                 2.4862
 IR Inten    --     28.6624               126.5590                52.7387

                     43                     44                     45
                      A                      A                      A
 Frequencies --   1093.1223              1099.6291              1115.7968
 Red. masses --      5.6762                 3.9917                 4.1452
 Frc consts  --      3.9962                 2.8438                 3.0406
 IR Inten    --     53.0333               212.0422                80.7921

                     46                     47                     48
                      A                      A                      A
 Frequencies --   1119.0028              1140.8872              1151.5604
 Red. masses --      2.4422                 2.5119                 3.7159
 Frc consts  --      1.8017                 1.9263                 2.9032
 IR Inten    --     73.3869                18.0382                89.0828

                     49                     50                     51
                      A                      A                      A
 Frequencies --   1222.0459              1250.2186              1261.2907
 Red. masses --      1.1307                 1.1687                 1.1671
 Frc consts  --      0.9949                 1.0762                 1.0939
 IR Inten    --     25.1463                29.8952                22.5070

                     52                     53                     54
                      A                      A                      A
 Frequencies --   1276.7816              1289.3852              1298.1257
 Red. masses --      1.4513                 1.1900                 1.2408
 Frc consts  --      1.3939                 1.1657                 1.2319
 IR Inten    --     54.7383                22.2987                11.1050

                     55                     56                     57
                      A                      A                      A
 Frequencies --   1335.5880              1349.8916              1370.8131
 Red. masses --      1.2427                 1.2389                 1.1976
 Frc consts  --      1.3061                 1.3300                 1.3259
 IR Inten    --     28.5021                16.9487                 4.9885

                     58                     59                     60
                      A                      A                      A
 Frequencies --   1379.3150              1401.0893              1413.2776
 Red. masses --      1.2874                 1.2819                 1.3692
 Frc consts  --      1.4431                 1.4826                 1.6113
 IR Inten    --      0.8701                 4.6753                 0.7048

                     61                     62                     63
                      A                      A                      A
 Frequencies --   1451.1328              1456.2311              1476.4664
 Red. masses --      1.5281                 1.4455                 1.5755
 Frc consts  --      1.8959                 1.8061                 2.0236
 IR Inten    --     35.6861                 1.5249                 2.9931

                     64                     65                     66
                      A                      A                      A
 Frequencies --   1498.2194              1539.9496              1570.2293
 Red. masses --      1.2296                 1.0846                 1.3291
 Frc consts  --      1.6261                 1.5154                 1.9307
 IR Inten    --     82.8577                 8.6083                56.0090

                     67                     68                     69
                      A                      A                      A
 Frequencies --   1742.4441              1759.1032              3010.6461
 Red. masses --      1.0791                 1.0683                 1.0815
 Frc consts  --      1.9302                 1.9478                 5.7757
 IR Inten    --     80.4480                38.3135                 8.2307

                     70                     71                     72
                      A                      A                      A
 Frequencies --   3020.6927              3031.5257              3037.4337
 Red. masses --      1.0669                 1.0857                 1.0852
 Frc consts  --      5.7359                 5.8786                 5.8990
 IR Inten    --     56.1086                61.2591                48.3599

                     73                     74                     75
                      A                      A                      A
 Frequencies --   3049.3480              3083.8445              3098.2677
 Red. masses --      1.0868                 1.0895                 1.0947
 Frc consts  --      5.9540                 6.1046                 6.1911
 IR Inten    --     54.4289                 6.2505                50.0132

                     76                     77                     78
                      A                      A                      A
 Frequencies --   3245.6047              3375.3240              3546.1469
 Red. masses --      1.0678                 1.0623                 1.0574
 Frc consts  --      6.6274                 7.1308                 7.8347
 IR Inten    --    942.6800               863.3530               438.6078

                     79                     80                     81
                      A                      A                      A
 Frequencies --   3597.9784              3742.9840              3748.5717
 Red. masses --      1.0660                 1.0664                 1.0662
 Frc consts  --      8.1304                 8.8028                 8.8275
 IR Inten    --    128.4398                18.9662                18.5921

                     82                     83                     84
                      A                      A                      A
 Frequencies --   3756.3913              3797.9891              3800.0558
 Red. masses --      1.0664                 1.0693                 1.0670
 Frc consts  --      8.8659                 9.0877                 9.0778
 IR Inten    --     30.2107                70.4380                35.0438

 - Thermochemistry -
 -------------------
 Temperature   298.150 Kelvin.  Pressure   1.00000 Atm.
 Atom     1 has atomic number  6 and mass  12.00000

 Molecular mass:   216.08452 amu.
 Principal axes and moments of inertia in atomic units:
                           1         2         3
     Eigenvalues --  2464.125433511.331434724.52348
           X            0.99998   0.00302   0.00520
           Y           -0.00296   0.99993  -0.01177
           Z           -0.00523   0.01175   0.99992
 This molecule is an asymmetric top.
 Rotational symmetry number  1.
 Warning -- assumption of classical behavior for rotation
           may cause significant error
 Rotational temperatures (Kelvin)      0.03515     0.02467     0.01833
 Rotational constants (GHZ):           0.73241     0.51398     0.38199
    1 imaginary frequencies ignored.
 Zero-point vibrational energy     650778.8 (Joules/Mol)
                                  155.53986 (Kcal/Mol)
 Warning -- explicit consideration of  29 degrees of freedom as
           vibrations may cause significant error
 Vibrational temperatures:     54.13    60.71   109.70   133.32   190.24
          (Kelvin)            226.83   250.31   277.58   294.05   315.76
                              356.53   383.63   396.83   406.08   416.94
                              447.25   472.78   486.26   515.05   546.56
                              613.42   649.03   665.26   694.96   721.00
                              767.96   791.72   845.55   862.10   895.34
                              933.06  1161.40  1173.62  1233.74  1315.25
                             1337.19  1383.57  1484.82  1516.37  1535.42
                             1562.56  1572.76  1582.12  1605.38  1609.99
                             1641.48  1656.84  1758.25  1798.78  1814.71
                             1837.00  1855.14  1867.71  1921.61  1942.19
                             1972.29  1984.52  2015.85  2033.39  2087.85
                             2095.19  2124.30  2155.60  2215.64  2259.21
                             2506.99  2530.95  4331.64  4346.10  4361.68
                             4370.18  4387.33  4436.96  4457.71  4669.70
                             4856.33  5102.11  5176.68  5385.31  5393.35
                             5404.60  5464.45  5467.43

 Zero-point correction=                           0.247869 (Hartree/Particle)
 Thermal correction to Energy=                    0.264671
 Thermal correction to Enthalpy=                  0.265615
 Thermal correction to Gibbs Free Energy=         0.204389
 Sum of electronic and zero-point Energies=           -839.749637
 Sum of electronic and thermal Energies=              -839.732834
 Sum of electronic and thermal Enthalpies=            -839.731890
 Sum of electronic and thermal Free Energies=         -839.793116

                     E (Thermal)             CV                S
                      KCal/Mol        Cal/Mol-Kelvin    Cal/Mol-Kelvin
 Total                  166.084             62.796            128.861
 Electronic               0.000              0.000              0.000
 Translational            0.889              2.981             42.015
 Rotational               0.889              2.981             32.080
 Vibrational            164.306             56.834             54.766
 Vibration     1          0.594              1.982              5.380
 Vibration     2          0.595              1.980              5.153
 Vibration     3          0.599              1.965              3.985
 Vibration     4          0.602              1.954              3.603
 Vibration     5          0.612              1.921              2.913
 Vibration     6          0.621              1.894              2.578
 Vibration     7          0.627              1.874              2.392
 Vibration     8          0.635              1.850              2.200
 Vibration     9          0.640              1.834              2.093
 Vibration    10          0.647              1.811              1.964
 Vibration    11          0.661              1.766              1.746
 Vibration    12          0.672              1.734              1.618
 Vibration    13          0.677              1.718              1.560
 Vibration    14          0.681              1.707              1.520
 Vibration    15          0.686              1.693              1.475
 Vibration    16          0.700              1.653              1.358
 Vibration    17          0.712              1.618              1.267
 Vibration    18          0.718              1.600              1.222
 Vibration    19          0.733              1.559              1.131
 Vibration    20          0.750              1.513              1.040
 Vibration    21          0.788              1.413              0.871
 Vibration    22          0.810              1.358              0.792
 Vibration    23          0.820              1.334              0.759
 Vibration    24          0.839              1.288              0.702
 Vibration    25          0.856              1.248              0.655
 Vibration    26          0.889              1.175              0.579
 Vibration    27          0.906              1.139              0.544
 Vibration    28          0.945              1.058              0.471
 Vibration    29          0.957              1.034              0.451

 Normal termination of Gaussian 09 at Tue Jan 24 19:39:56 2017.
