 Gaussian 09, Revision D.01,
 Gaussian 09:  ES64L-G09RevD.01 24-Apr-2013

 ------------------------------------------------------
 # opt=(modredundant,MaxCycle=1000) freq B3LYP/6-31G(d)
 ------------------------------------------------------

 ------------------------------------------------------------------
 ./opt_IRC/b3lyp/boats/6/glo_1w_beta_ircr_boat6_B3LYP_631Gd_opt.out
 ------------------------------------------------------------------
 Symbolic Z-matrix:
 Charge =  0 Multiplicity = 1

 SCF Done:  E(RB3LYP) =  -839.978370574     A.U. after   13 cycles
 SCF Done:  E(RB3LYP) =  -839.987623511     A.U. after   11 cycles
 SCF Done:  E(RB3LYP) =  -839.989418801     A.U. after   11 cycles
 SCF Done:  E(RB3LYP) =  -839.990494413     A.U. after   11 cycles
 SCF Done:  E(RB3LYP) =  -839.991514693     A.U. after   11 cycles
 SCF Done:  E(RB3LYP) =  -839.992273604     A.U. after   11 cycles
 SCF Done:  E(RB3LYP) =  -839.992630023     A.U. after   10 cycles
 SCF Done:  E(RB3LYP) =  -839.992781687     A.U. after   11 cycles
 SCF Done:  E(RB3LYP) =  -839.992896925     A.U. after   10 cycles
 SCF Done:  E(RB3LYP) =  -839.992972675     A.U. after   10 cycles
 SCF Done:  E(RB3LYP) =  -839.994066053     A.U. after    9 cycles
 SCF Done:  E(RB3LYP) =  -839.994078672     A.U. after    9 cycles
 SCF Done:  E(RB3LYP) =  -839.994083759     A.U. after    9 cycles
 SCF Done:  E(RB3LYP) =  -839.994085995     A.U. after    7 cycles
 SCF Done:  E(RB3LYP) =  -839.994087035     A.U. after    7 cycles
 SCF Done:  E(RB3LYP) =  -839.994088086     A.U. after    7 cycles
 SCF Done:  E(RB3LYP) =  -839.994088458     A.U. after    7 cycles
 SCF Done:  E(RB3LYP) =  -839.994088529     A.U. after    6 cycles
 SCF Done:  E(RB3LYP) =  -839.994088551     A.U. after    6 cycles
 Optimization completed.
    -- Stationary point found.
 Normal termination of Gaussian 09 at Tue Jan 24 19:33:26 2017.

 --------------------------------------------------------------------
 #N Geom=AllCheck Guess=TCheck SCRF=Check GenChk RB3LYP/6-31G(d) Freq
 --------------------------------------------------------------------

 Structure from the checkpoint file:  "/home/iawad/Gau-19731.chk"
 ------------------------------------------------------------------
 ./opt_IRC/b3lyp/boats/6/glo_1w_beta_ircr_boat6_B3LYP_631Gd_opt.out
 ------------------------------------------------------------------
 Charge =  0 Multiplicity = 1

                         Standard orientation:
 ---------------------------------------------------------------------
 Center     Atomic      Atomic             Coordinates (Angstroms)
 Number     Number       Type             X           Y           Z
 ---------------------------------------------------------------------
      1          6           0       -0.503532    1.039078    0.472110
      2          6           0        1.422800   -0.660362    0.353455
      3          6           0        0.910540    0.757656   -0.050059
      4          6           0        0.396911   -1.454604    1.181600
      5          1           0        0.708156   -2.508398    1.207941
      6          1           0        2.319110   -0.510686    0.967763
      7          1           0       -0.487175    1.180901    1.556507
      8          1           0        0.840993    0.738953   -1.151100
      9          6           0       -0.962080   -1.394353    0.486049
     10          1           0       -1.749636   -1.808799    1.129267
     11          8           0       -1.363515   -0.067734    0.147939
     12          6           0       -1.100167    2.270473   -0.186119
     13          1           0       -0.427902    3.113238    0.022998
     14          1           0       -1.128680    2.114912   -1.277713
     15          8           0       -2.406869    2.480920    0.336521
     16          1           0       -2.723024    3.331847   -0.001913
     17          8           0       -0.828095   -2.148748   -0.700330
     18          8           0        0.224862   -0.930860    2.489934
     19          1           0        1.094574   -0.901692    2.918388
     20          8           0        1.850666   -1.417417   -0.781942
     21          1           0        1.030662   -1.757419   -1.197700
     22          8           0        1.779381    1.785834    0.375064
     23          1           0        2.600353    1.646748   -0.147642
     24          8           0       -3.109949   -1.005622   -1.741786
     25          1           0       -1.646329   -1.979304   -1.228509
     26          1           0       -3.955251   -1.266459   -1.345561
     27          1           0       -2.767059   -0.300675   -1.153980
     28          8           0        3.669706    0.649466   -1.392497
     29          1           0        3.608433    0.986803   -2.298559
     30          1           0        3.166448   -0.194024   -1.405634
 ---------------------------------------------------------------------

 SCF Done:  E(RB3LYP) =  -839.994088551     A.U. after    1 cycles

 The electronic state is 1-A.
 Alpha  occ. eigenvalues --  -19.16268 -19.16181 -19.15681 -19.15596 -19.15368
 Alpha  occ. eigenvalues --  -19.14880 -19.14513 -19.12955 -10.29159 -10.24664
 Alpha  occ. eigenvalues --  -10.24088 -10.23552 -10.23324 -10.23073  -1.07523
 Alpha  occ. eigenvalues --   -1.03613  -1.02811  -1.02057  -1.01237  -1.00989
 Alpha  occ. eigenvalues --   -1.00196  -0.99711  -0.77593  -0.76791  -0.69307
 Alpha  occ. eigenvalues --   -0.64175  -0.62625  -0.56428  -0.55808  -0.54192
 Alpha  occ. eigenvalues --   -0.53528  -0.52257  -0.51937  -0.50877  -0.48644
 Alpha  occ. eigenvalues --   -0.47641  -0.45943  -0.45200  -0.42878  -0.41204
 Alpha  occ. eigenvalues --   -0.40886  -0.40211  -0.39670  -0.39574  -0.38333
 Alpha  occ. eigenvalues --   -0.37532  -0.35747  -0.34262  -0.33984  -0.31806
 Alpha  occ. eigenvalues --   -0.30871  -0.30124  -0.29606  -0.28913  -0.28534
 Alpha  occ. eigenvalues --   -0.26940  -0.26527  -0.24626
 Alpha virt. eigenvalues --    0.05446   0.05816   0.06572   0.07527   0.09200
 Alpha virt. eigenvalues --    0.11889   0.12766   0.14039   0.14218   0.14932
 Alpha virt. eigenvalues --    0.15638   0.16503   0.17230   0.18336   0.19320

 Mulliken charges:
               1
     1  C    0.138001
     2  C    0.076912
     3  C    0.112372
     4  C    0.064477
     5  H    0.151853
     6  H    0.145757
     7  H    0.170786
     8  H    0.103683
     9  C    0.356142
    10  H    0.137819
    11  O   -0.548280
    12  C   -0.052354
    13  H    0.155499
    14  H    0.116849
    15  O   -0.622492
    16  H    0.394966
    17  O   -0.674045
    18  O   -0.623630
    19  H    0.403571
    20  O   -0.670462
    21  H    0.426833
    22  O   -0.672037
    23  H    0.428117
    24  O   -0.802307
    25  H    0.434522
    26  H    0.399781
    27  H    0.432275
    28  O   -0.812251
    29  H    0.394634
    30  H    0.433007
 Sum of Mulliken charges =   0.00000

 Dipole moment (field-independent basis, Debye):
    X=             -1.2406    Y=              0.4364    Z=             -1.1423  Tot=              1.7420
 Quadrupole moment (field-independent basis, Debye-Ang):
   XX=            -80.7243   YY=            -79.1607   ZZ=            -80.1677
   XY=             -1.7579   XZ=              0.1388   YZ=             -8.2100

  Exact polarizability: 102.035   0.513  95.564   0.227  -0.531  86.267
 Approx polarizability: 131.341   2.496 126.372  -0.067   5.480 125.379

 ******    1 imaginary frequencies (negative Signs) ******

                      1                      2                      3
                      A                      A                      A
 Frequencies --    -22.8850                47.6148                60.7188
 Red. masses --      6.3719                 5.6926                 5.8253
 Frc consts  --      0.0020                 0.0076                 0.0127
 IR Inten    --      8.1654                 3.3269                 0.4765

                      4                      5                      6
                      A                      A                      A
 Frequencies --     64.0346                97.5243               132.8001
 Red. masses --      5.6072                 4.0684                 6.1120
 Frc consts  --      0.0135                 0.0228                 0.0635
 IR Inten    --      3.0496                 8.8292                 8.9018

                      7                      8                      9
                      A                      A                      A
 Frequencies --    147.2195               175.4143               185.8970
 Red. masses --      4.5292                 5.6874                 5.6122
 Frc consts  --      0.0578                 0.1031                 0.1143
 IR Inten    --      0.2573                 2.6059                14.9220

                     10                     11                     12
                      A                      A                      A
 Frequencies --    195.9408               223.3790               241.8012
 Red. masses --      6.1142                 3.3733                 1.3569
 Frc consts  --      0.1383                 0.0992                 0.0467
 IR Inten    --      0.5937                20.6597                88.6103

                     13                     14                     15
                      A                      A                      A
 Frequencies --    251.3482               260.1218               282.9221
 Red. masses --      1.2359                 2.3882                 1.8428
 Frc consts  --      0.0460                 0.0952                 0.0869
 IR Inten    --     76.1529                68.3082                64.5285

                     16                     17                     18
                      A                      A                      A
 Frequencies --    283.6447               307.4432               309.1983
 Red. masses --      2.0714                 3.5151                 1.1925
 Frc consts  --      0.0982                 0.1958                 0.0672
 IR Inten    --     59.4064                23.9114               101.8176

                     19                     20                     21
                      A                      A                      A
 Frequencies --    328.6619               350.4850               374.3526
 Red. masses --      1.1462                 5.0429                 4.5981
 Frc consts  --      0.0729                 0.3650                 0.3797
 IR Inten    --     33.8716                 8.8811                 2.6336

                     22                     23                     24
                      A                      A                      A
 Frequencies --    402.4372               449.4343               467.0394
 Red. masses --      1.1419                 5.0055                 4.4123
 Frc consts  --      0.1090                 0.5957                 0.5671
 IR Inten    --     53.3748                 4.9982                 1.8602

                     25                     26                     27
                      A                      A                      A
 Frequencies --    481.4350               513.1916               534.2725
 Red. masses --      3.4237                 4.5133                 5.6859
 Frc consts  --      0.4675                 0.7003                 0.9563
 IR Inten    --      3.4880                 4.7410                 5.0337

                     28                     29                     30
                      A                      A                      A
 Frequencies --    590.6877               602.3866               633.3631
 Red. masses --      5.0939                 4.6313                 1.1249
 Frc consts  --      1.0472                 0.9901                 0.2659
 IR Inten    --      3.5153                11.6833                31.0822

                     31                     32                     33
                      A                      A                      A
 Frequencies --    696.3748               712.9484               779.6338
 Red. masses --      1.1007                 1.0631                 1.0663
 Frc consts  --      0.3145                 0.3184                 0.3819
 IR Inten    --    410.2733               178.8802               166.2373

                     34                     35                     36
                      A                      A                      A
 Frequencies --    815.0305               843.1303               880.1489
 Red. masses --      4.1564                 1.7980                 1.4629
 Frc consts  --      1.6267                 0.7531                 0.6677
 IR Inten    --     41.2129                81.5683                82.3162

                     37                     38                     39
                      A                      A                      A
 Frequencies --    919.9228               961.4993              1033.9790
 Red. masses --      2.6980                 2.6476                 3.7866
 Frc consts  --      1.3452                 1.4421                 2.3852
 IR Inten    --     48.0804                64.0814                 1.3975

                     40                     41                     42
                      A                      A                      A
 Frequencies --   1058.8020              1069.8845              1085.6273
 Red. masses --      3.2852                 4.4614                 3.3575
 Frc consts  --      2.1699                 3.0088                 2.3314
 IR Inten    --     32.2478               184.6783                72.7517

                     43                     44                     45
                      A                      A                      A
 Frequencies --   1098.5556              1117.0483              1122.1645
 Red. masses --      4.4647                 4.1931                 2.5861
 Frc consts  --      3.1746                 3.0827                 1.9187
 IR Inten    --     90.7113                58.3674                31.6624

                     46                     47                     48
                      A                      A                      A
 Frequencies --   1133.6329              1138.8308              1149.8118
 Red. masses --      4.6876                 4.1019                 2.4313
 Frc consts  --      3.5493                 3.1344                 1.8938
 IR Inten    --     89.7771                82.5222                32.3363

                     49                     50                     51
                      A                      A                      A
 Frequencies --   1238.3617              1251.9781              1266.8071
 Red. masses --      1.1098                 1.1371                 1.1582
 Frc consts  --      1.0028                 1.0501                 1.0951
 IR Inten    --     12.3263                42.6155                31.3407

                     52                     53                     54
                      A                      A                      A
 Frequencies --   1282.1570              1291.1616              1316.2792
 Red. masses --      1.3574                 1.1873                 1.2190
 Frc consts  --      1.3147                 1.1662                 1.2444
 IR Inten    --     57.8688                18.1975                 6.4532

                     55                     56                     57
                      A                      A                      A
 Frequencies --   1342.1391              1355.8169              1383.3427
 Red. masses --      1.2376                 1.1825                 1.2891
 Frc consts  --      1.3135                 1.2807                 1.4534
 IR Inten    --      4.9708                54.4053                 1.2966

                     58                     59                     60
                      A                      A                      A
 Frequencies --   1387.1327              1399.3434              1414.1966
 Red. masses --      1.1865                 1.2414                 1.3572
 Frc consts  --      1.3451                 1.4323                 1.5993
 IR Inten    --     11.1041                 1.3532                 0.9048

                     61                     62                     63
                      A                      A                      A
 Frequencies --   1452.3225              1478.5487              1484.9427
 Red. masses --      1.4459                 1.2611                 1.4605
 Frc consts  --      1.7969                 1.6244                 1.8975
 IR Inten    --     13.0247                78.0520                45.7029

                     64                     65                     66
                      A                      A                      A
 Frequencies --   1502.9864              1536.1913              1543.5692
 Red. masses --      1.4471                 1.5032                 1.0875
 Frc consts  --      1.9260                 2.0900                 1.5267
 IR Inten    --     22.2176                57.6991                 6.8073

                     67                     68                     69
                      A                      A                      A
 Frequencies --   1717.6804              1739.6299              2971.1017
 Red. masses --      1.0781                 1.0745                 1.0818
 Frc consts  --      1.8741                 1.9159                 5.6266
 IR Inten    --     48.6711                50.3223                20.5115

                     70                     71                     72
                      A                      A                      A
 Frequencies --   2989.3740              3036.6236              3048.4467
 Red. masses --      1.0680                 1.0845                 1.0863
 Frc consts  --      5.6231                 5.8921                 5.9481
 IR Inten    --     72.3959                31.6981                77.1257

                     73                     74                     75
                      A                      A                      A
 Frequencies --   3062.8844              3064.9811              3109.0328
 Red. masses --      1.0874                 1.0940                 1.0860
 Frc consts  --      6.0105                 6.0549                 6.1847
 IR Inten    --     26.1268                32.1656                25.4237

                     76                     77                     78
                      A                      A                      A
 Frequencies --   3427.9685              3515.4318              3559.8764
 Red. masses --      1.0667                 1.0630                 1.0615
 Frc consts  --      7.3854                 7.7402                 7.9256
 IR Inten    --    492.6872               117.0352               624.7454

                     79                     80                     81
                      A                      A                      A
 Frequencies --   3588.9964              3606.7817              3747.6523
 Red. masses --      1.0645                 1.0548                 1.0663
 Frc consts  --      8.0787                 8.0849                 8.8236
 IR Inten    --     40.1437               329.5162                22.1823

                     82                     83                     84
                      A                      A                      A
 Frequencies --   3756.9314              3802.8869              3803.3598
 Red. masses --      1.0665                 1.0724                 1.0708
 Frc consts  --      8.8691                 9.1380                 9.1264
 IR Inten    --     16.3382                97.3691                45.5067

 - Thermochemistry -
 -------------------
 Temperature   298.150 Kelvin.  Pressure   1.00000 Atm.
 Atom     1 has atomic number  6 and mass  12.00000

 Molecular mass:   216.08452 amu.
 Principal axes and moments of inertia in atomic units:
                           1         2         3
     Eigenvalues --  2623.573683599.223384394.83739
           X            0.99999   0.00365   0.00034
           Y           -0.00364   0.99969  -0.02457
           Z           -0.00043   0.02456   0.99970
 This molecule is an asymmetric top.
 Rotational symmetry number  1.
 Warning -- assumption of classical behavior for rotation
           may cause significant error
 Rotational temperatures (Kelvin)      0.03301     0.02406     0.01971
 Rotational constants (GHZ):           0.68789     0.50143     0.41065
    1 imaginary frequencies ignored.
 Zero-point vibrational energy     652495.4 (Joules/Mol)
                                  155.95014 (Kcal/Mol)
 Warning -- explicit consideration of  28 degrees of freedom as
           vibrations may cause significant error
 Vibrational temperatures:     68.51    87.36    92.13   140.32   191.07
          (Kelvin)            211.82   252.38   267.46   281.91   321.39
                              347.90   361.63   374.26   407.06   408.10
                              442.34   444.87   472.87   504.27   538.61
                              579.02   646.63   671.96   692.68   738.37
                              768.70   849.87   866.70   911.27  1001.93
                             1025.77  1121.72  1172.65  1213.07  1266.34
                             1323.56  1383.38  1487.66  1523.38  1539.32
                             1561.97  1580.57  1607.18  1614.54  1631.04
                             1638.52  1654.32  1781.72  1801.31  1822.65
                             1844.74  1857.69  1893.83  1931.04  1950.72
                             1990.32  1995.77  2013.34  2034.71  2089.57
                             2127.30  2136.50  2162.46  2210.23  2220.85
                             2471.36  2502.94  4274.75  4301.04  4369.02
                             4386.03  4406.80  4409.82  4473.20  4932.08
                             5057.92  5121.86  5163.76  5189.35  5392.03
                             5405.38  5471.50  5472.18

 Zero-point correction=                           0.248522 (Hartree/Particle)
 Thermal correction to Energy=                    0.265335
 Thermal correction to Enthalpy=                  0.266280
 Thermal correction to Gibbs Free Energy=         0.205275
 Sum of electronic and zero-point Energies=           -839.745566
 Sum of electronic and thermal Energies=              -839.728753
 Sum of electronic and thermal Enthalpies=            -839.727809
 Sum of electronic and thermal Free Energies=         -839.788813

                     E (Thermal)             CV                S
                      KCal/Mol        Cal/Mol-Kelvin    Cal/Mol-Kelvin
 Total                  166.500             62.580            128.394
 Electronic               0.000              0.000              0.000
 Translational            0.889              2.981             42.015
 Rotational               0.889              2.981             32.095
 Vibrational            164.723             56.618             54.284
 Vibration     1          0.595              1.978              4.914
 Vibration     2          0.597              1.973              4.434
 Vibration     3          0.597              1.971              4.329
 Vibration     4          0.603              1.951              3.503
 Vibration     5          0.613              1.921              2.905
 Vibration     6          0.617              1.906              2.708
 Vibration     7          0.627              1.873              2.377
 Vibration     8          0.632              1.859              2.268
 Vibration     9          0.636              1.846              2.171
 Vibration    10          0.649              1.805              1.932
 Vibration    11          0.658              1.776              1.790
 Vibration    12          0.663              1.761              1.721
 Vibration    13          0.668              1.746              1.661
 Vibration    14          0.682              1.705              1.516
 Vibration    15          0.682              1.704              1.512
 Vibration    16          0.697              1.660              1.376
 Vibration    17          0.699              1.656              1.367
 Vibration    18          0.712              1.618              1.267
 Vibration    19          0.727              1.574              1.164
 Vibration    20          0.745              1.525              1.062
 Vibration    21          0.768              1.465              0.954
 Vibration    22          0.808              1.362              0.797
 Vibration    23          0.824              1.323              0.746
 Vibration    24          0.838              1.291              0.706
 Vibration    25          0.868              1.221              0.626
 Vibration    26          0.889              1.174              0.578
 Vibration    27          0.948              1.052              0.466
 Vibration    28          0.961              1.027              0.446

 Optimization completed.
    -- Stationary point found.
 Normal termination of Gaussian 09 at Tue Jan 24 19:37:10 2017.
