 Gaussian 09, Revision E.01,
 Gaussian 09:  ES64L-G09RevE.01 30-Nov-2015

 ----------------------------------------------------------------------
 # opt=(calcfc,ts,noeigentest,maxcycle=1000,cartesian) b3lyp 6-31g(d) f
 req
 ----------------------------------------------------------------------

 ------------------------
 boat5_Beta_B3LYP_6-31G_d
 ------------------------
 Symbolic Z-matrix:
 Charge =  0 Multiplicity = 1

 SCF Done:  E(RB3LYP) =  -839.958326448     A.U. after   14 cycles
 SCF Done:  E(RB3LYP) =  -839.958786164     A.U. after   12 cycles
 SCF Done:  E(RB3LYP) =  -839.958910179     A.U. after   11 cycles
 SCF Done:  E(RB3LYP) =  -839.958636066     A.U. after   11 cycles
 SCF Done:  E(RB3LYP) =  -839.958729395     A.U. after   11 cycles
 SCF Done:  E(RB3LYP) =  -839.958718028     A.U. after   11 cycles
 SCF Done:  E(RB3LYP) =  -839.958784309     A.U. after   11 cycles
 SCF Done:  E(RB3LYP) =  -839.958825339     A.U. after   11 cycles
 SCF Done:  E(RB3LYP) =  -839.958946697     A.U. after   11 cycles
 SCF Done:  E(RB3LYP) =  -839.959007317     A.U. after   11 cycles
 SCF Done:  E(RB3LYP) =  -839.959007300     A.U. after   11 cycles
 SCF Done:  E(RB3LYP) =  -839.959093968     A.U. after   11 cycles
 SCF Done:  E(RB3LYP) =  -839.959098310     A.U. after   10 cycles
 SCF Done:  E(RB3LYP) =  -839.959098724     A.U. after    9 cycles
 SCF Done:  E(RB3LYP) =  -839.959099384     A.U. after    8 cycles
 SCF Done:  E(RB3LYP) =  -839.959100577     A.U. after    8 cycles
 SCF Done:  E(RB3LYP) =  -839.959100738     A.U. after    8 cycles
 SCF Done:  E(RB3LYP) =  -839.959100839     A.U. after    7 cycles
 SCF Done:  E(RB3LYP) =  -839.959100836     A.U. after    7 cycles
 Optimization completed.
    -- Stationary point found.
 Normal termination of Gaussian 09 at Thu Jan 12 17:08:13 2017.

 --------------------------------------------------------------------
 #N Geom=AllCheck Guess=TCheck SCRF=Check GenChk RB3LYP/6-31G(d) Freq
 --------------------------------------------------------------------

 Structure from the checkpoint file:  "/scratch/10455169.yak.local/Gau-28948.chk"
 ------------------------
 boat5_Beta_B3LYP_6-31G_d
 ------------------------
 Charge =  0 Multiplicity = 1

                         Standard orientation:
 ---------------------------------------------------------------------
 Center     Atomic      Atomic             Coordinates (Angstroms)
 Number     Number       Type             X           Y           Z
 ---------------------------------------------------------------------
      1          8           0        0.376942    0.734090   -0.621377
      2          6           0       -1.428503   -0.184194    0.733120
      3          6           0        0.181673   -1.795615   -0.374122
      4          6           0       -0.433138   -1.350465    0.953553
      5          6           0        1.011212   -0.677714   -1.085220
      6          6           0       -1.035730    0.692744   -0.480058
      7          1           0       -1.004621   -2.190445    1.368866
      8          1           0       -1.460626    0.228214   -1.380823
      9          1           0       -1.438804    0.429044    1.644268
     10          1           0        0.879607   -2.624448   -0.205021
     11          6           0       -1.615908    2.104416   -0.376635
     12          1           0       -1.264206    2.705494   -1.221446
     13          1           0       -1.249245    2.584770    0.548432
     14          1           0        0.725620   -0.632660   -2.164451
     15          8           0        2.267147   -0.716478   -0.790645
     16          8           0       -3.033016    2.082297   -0.427105
     17          1           0       -3.331908    1.284098    0.045251
     18          8           0       -0.955059   -2.234540   -1.136139
     19          1           0       -0.671315   -2.341721   -2.057965
     20          8           0        0.629982   -1.013990    1.866244
     21          1           0        0.241398   -0.968653    2.753888
     22          8           0       -2.768797   -0.660320    0.588500
     23          1           0       -2.749816   -1.257818   -0.182161
     24          8           0        3.758279    1.218300   -0.382472
     25          1           0        2.850602    1.335483    0.654670
     26          1           0        4.587072    0.808652   -0.087511
     27          1           0        3.197930    0.431409   -0.797210
     28          8           0        1.923939    1.319592    1.250290
     29          1           0        1.202767    1.241888    0.475370
     30          1           0        1.812573    0.400057    1.603651
 ---------------------------------------------------------------------

 SCF Done:  E(RB3LYP) =  -839.959100836     A.U. after    1 cycles

 The electronic state is 1-A.
 Alpha  occ. eigenvalues --  -19.20526 -19.19066 -19.17092 -19.16497 -19.15913
 Alpha  occ. eigenvalues --  -19.15575 -19.12975 -19.07617 -10.27331 -10.25922
 Alpha  occ. eigenvalues --  -10.24989 -10.24195 -10.23836 -10.22644  -1.08216
 Alpha  occ. eigenvalues --   -1.06009  -1.04363  -1.03398  -1.02010  -1.01258
 Alpha  occ. eigenvalues --   -1.00245  -0.95764  -0.78262  -0.74605  -0.68351
 Alpha  occ. eigenvalues --   -0.64600  -0.61343  -0.58359  -0.57707  -0.56429
 Alpha  occ. eigenvalues --   -0.54244  -0.53735  -0.51973  -0.50899  -0.49735
 Alpha  occ. eigenvalues --   -0.48017  -0.45999  -0.44943  -0.43902  -0.42744
 Alpha  occ. eigenvalues --   -0.42137  -0.41278  -0.40505  -0.39789  -0.38967
 Alpha  occ. eigenvalues --   -0.38155  -0.37187  -0.35556  -0.33981  -0.33421
 Alpha  occ. eigenvalues --   -0.32490  -0.31841  -0.29832  -0.28455  -0.26421
 Alpha  occ. eigenvalues --   -0.25835  -0.23879  -0.21827
 Alpha virt. eigenvalues --    0.02700   0.05989   0.07202   0.07580   0.09497
 Alpha virt. eigenvalues --    0.09927   0.11928   0.12612   0.13157   0.14569
 Alpha virt. eigenvalues --    0.15215   0.16333   0.17005   0.19037   0.19931

 Mulliken charges:
               1
     1  O   -0.623868
     2  C    0.075328
     3  C    0.078878
     4  C    0.092537
     5  C    0.374933
     6  C    0.122128
     7  H    0.155393
     8  H    0.134308
     9  H    0.134508
    10  H    0.155062
    11  C   -0.028767
    12  H    0.152640
    13  H    0.115603
    14  H    0.077638
    15  O   -0.677401
    16  O   -0.643376
    17  H    0.411805
    18  O   -0.657542
    19  H    0.404637
    20  O   -0.646466
    21  H    0.411240
    22  O   -0.643284
    23  H    0.417908
    24  O   -0.815590
    25  H    0.461319
    26  H    0.404822
    27  H    0.445342
    28  O   -0.808309
    29  H    0.465835
    30  H    0.452740
 Sum of Mulliken charges =  -0.00000

 Dipole moment (field-independent basis, Debye):
    X=              1.5630    Y=             -2.7098    Z=              2.3116  Tot=              3.8897
 Quadrupole moment (field-independent basis, Debye-Ang):
   XX=            -88.7675   YY=            -90.2947   ZZ=            -73.8608
   XY=              5.8421   XZ=              4.8508   YZ=              3.2855

  Exact polarizability: 113.859   0.968  92.342   1.523   2.554  88.356
 Approx polarizability: 154.672   2.497 125.642   5.117   5.086 128.313

 ******    1 imaginary frequencies (negative Signs) ******

                      1                      2                      3
                      A                      A                      A
 Frequencies --   -316.9325                56.8253                73.2746
 Red. masses --      3.0834                 5.4677                 6.9153
 Frc consts  --      0.1825                 0.0104                 0.0219
 IR Inten    --     24.3599                 5.1816                 1.0352

                      4                      5                      6
                      A                      A                      A
 Frequencies --     78.2890               108.7751               128.7909
 Red. masses --      5.7559                 7.2623                 4.3366
 Frc consts  --      0.0208                 0.0506                 0.0424
 IR Inten    --      1.9166                 4.6734                 2.6041

                      7                      8                      9
                      A                      A                      A
 Frequencies --    158.3631               180.1540               219.3555
 Red. masses --      5.3805                 4.9309                 3.5581
 Frc consts  --      0.0795                 0.0943                 0.1009
 IR Inten    --      6.9953                 2.8909                 6.0349

                     10                     11                     12
                      A                      A                      A
 Frequencies --    225.8655               246.9880               260.5270
 Red. masses --      4.1999                 4.0059                 3.2990
 Frc consts  --      0.1262                 0.1440                 0.1319
 IR Inten    --     11.3669                 6.3124                11.3756

                     13                     14                     15
                      A                      A                      A
 Frequencies --    269.0508               329.6979               339.1419
 Red. masses --      1.6407                 4.4967                 2.1773
 Frc consts  --      0.0700                 0.2880                 0.1475
 IR Inten    --    102.0077                54.8608                89.3368

                     16                     17                     18
                      A                      A                      A
 Frequencies --    344.0930               374.3855               411.7046
 Red. masses --      1.6902                 3.9505                 3.2492
 Frc consts  --      0.1179                 0.3262                 0.3245
 IR Inten    --     72.7959                71.6940                32.4429

                     19                     20                     21
                      A                      A                      A
 Frequencies --    423.0194               444.5391               452.7653
 Red. masses --      3.3821                 1.5011                 1.9721
 Frc consts  --      0.3566                 0.1748                 0.2382
 IR Inten    --     31.2861                58.2746               104.3811

                     22                     23                     24
                      A                      A                      A
 Frequencies --    471.8720               480.7315               508.7070
 Red. masses --      3.2551                 2.0108                 2.5866
 Frc consts  --      0.4270                 0.2738                 0.3944
 IR Inten    --     13.7804                71.1648                40.7791

                     25                     26                     27
                      A                      A                      A
 Frequencies --    528.7760               563.4485               584.0058
 Red. masses --      3.9118                 4.1146                 3.8007
 Frc consts  --      0.6444                 0.7696                 0.7637
 IR Inten    --     35.7582                69.7183                88.9149

                     28                     29                     30
                      A                      A                      A
 Frequencies --    594.6280               611.6690               626.2539
 Red. masses --      1.5215                 1.3998                 1.3531
 Frc consts  --      0.3170                 0.3086                 0.3127
 IR Inten    --     30.9064               106.3294                41.6174

                     31                     32                     33
                      A                      A                      A
 Frequencies --    698.4627               738.3371               818.8211
 Red. masses --      2.5291                 1.0947                 4.3992
 Frc consts  --      0.7270                 0.3516                 1.7378
 IR Inten    --     46.6679                30.3921                39.8042

                     34                     35                     36
                      A                      A                      A
 Frequencies --    857.9954               913.2889               999.1787
 Red. masses --      2.5237                 2.4322                 2.0560
 Frc consts  --      1.0946                 1.1953                 1.2094
 IR Inten    --      2.3715                25.9527                 7.8053

                     37                     38                     39
                      A                      A                      A
 Frequencies --   1018.3668              1049.4520              1065.1043
 Red. masses --      1.1735                 4.4451                 5.2024
 Frc consts  --      0.7171                 2.8844                 3.4773
 IR Inten    --    462.4585                89.9773                 2.2899

                     40                     41                     42
                      A                      A                      A
 Frequencies --   1076.9845              1081.5086              1090.3300
 Red. masses --      2.4382                 4.4803                 3.4687
 Frc consts  --      1.6663                 3.0876                 2.4296
 IR Inten    --     56.4184                52.5227               183.0973

                     43                     44                     45
                      A                      A                      A
 Frequencies --   1103.7456              1115.1673              1135.8281
 Red. masses --      2.8025                 2.6797                 2.3842
 Frc consts  --      2.0115                 1.9634                 1.8122
 IR Inten    --     17.2840                38.1874                 7.1091

                     46                     47                     48
                      A                      A                      A
 Frequencies --   1156.2371              1202.5985              1233.1209
 Red. masses --      1.4820                 1.1550                 1.1794
 Frc consts  --      1.1673                 0.9841                 1.0566
 IR Inten    --     64.4831                 9.0896                17.3334

                     49                     50                     51
                      A                      A                      A
 Frequencies --   1244.6523              1272.7712              1289.0587
 Red. masses --      1.0892                 1.2961                 1.2253
 Frc consts  --      0.9942                 1.2370                 1.1996
 IR Inten    --    100.5188                 5.8781                 3.9245

                     52                     53                     54
                      A                      A                      A
 Frequencies --   1320.5870              1332.1961              1338.2534
 Red. masses --      1.2841                 1.5313                 1.2989
 Frc consts  --      1.3194                 1.6013                 1.3706
 IR Inten    --     12.8646                65.9451                11.7015

                     55                     56                     57
                      A                      A                      A
 Frequencies --   1349.8265              1366.5276              1396.4057
 Red. masses --      1.4579                 1.2057                 1.2883
 Frc consts  --      1.5651                 1.3266                 1.4801
 IR Inten    --      9.1939                10.2477                54.7383

                     58                     59                     60
                      A                      A                      A
 Frequencies --   1406.1769              1425.2000              1430.2344
 Red. masses --      1.3451                 1.6659                 1.4858
 Frc consts  --      1.5671                 1.9937                 1.7907
 IR Inten    --     27.8651                87.5259                57.9563

                     61                     62                     63
                      A                      A                      A
 Frequencies --   1447.9372              1476.8924              1480.6458
 Red. masses --      1.2454                 1.5467                 1.3130
 Frc consts  --      1.5384                 1.9877                 1.6959
 IR Inten    --     56.2742                70.0292                92.6697

                     64                     65                     66
                      A                      A                      A
 Frequencies --   1551.5287              1589.0037              1623.7257
 Red. masses --      1.0925                 1.0957                 1.4702
 Frc consts  --      1.5495                 1.6300                 2.2838
 IR Inten    --      2.0400               565.1038              1480.8143

                     67                     68                     69
                      A                      A                      A
 Frequencies --   1717.5149              1749.5932              1898.5446
 Red. masses --      1.0824                 1.0565                 1.0326
 Frc consts  --      1.8813                 1.9055                 2.1929
 IR Inten    --    335.7796               160.2370               237.4672

                     70                     71                     72
                      A                      A                      A
 Frequencies --   2362.7694              2482.3474              2815.5609
 Red. masses --      1.0645                 1.0746                 1.0830
 Frc consts  --      3.5015                 3.9013                 5.0585
 IR Inten    --   1389.3730              2746.4900               142.1695

                     73                     74                     75
                      A                      A                      A
 Frequencies --   2967.8643              3033.7863              3049.2480
 Red. masses --      1.0732                 1.0824                 1.0860
 Frc consts  --      5.5694                 5.8697                 5.9495
 IR Inten    --     66.3120                 7.7638                62.3521

                     76                     77                     78
                      A                      A                      A
 Frequencies --   3050.9107              3069.8531              3099.9353
 Red. masses --      1.0858                 1.0869                 1.0914
 Frc consts  --      5.9544                 6.0352                 6.1793
 IR Inten    --     26.2753                37.3856                38.2825

                     79                     80                     81
                      A                      A                      A
 Frequencies --   3454.3067              3664.6292              3681.9728
 Red. masses --      1.0610                 1.0667                 1.0655
 Frc consts  --      7.4593                 8.4399                 8.5107
 IR Inten    --    368.5616               103.4309                41.5299

                     82                     83                     84
                      A                      A                      A
 Frequencies --   3739.8129              3748.7437              3779.2549
 Red. masses --      1.0662                 1.0664                 1.0648
 Frc consts  --      8.7863                 8.8298                 8.9602
 IR Inten    --     23.0542                31.9676                46.1358

 - Thermochemistry -
 -------------------
 Temperature   298.150 Kelvin.  Pressure   1.00000 Atm.
 Atom     1 has atomic number  8 and mass  15.99491

 Molecular mass:   216.08452 amu.
 Principal axes and moments of inertia in atomic units:
                           1         2         3
     Eigenvalues --  2149.590323615.263994372.85947
           X            0.99996   0.00841   0.00353
           Y           -0.00844   0.99994   0.00732
           Z           -0.00347  -0.00735   0.99997
 This molecule is an asymmetric top.
 Rotational symmetry number  1.
 Warning -- assumption of classical behavior for rotation
           may cause significant error
 Rotational temperatures (Kelvin)      0.04029     0.02396     0.01981
 Rotational constants (GHZ):           0.83957     0.49920     0.41271
    1 imaginary frequencies ignored.
 Zero-point vibrational energy     640950.1 (Joules/Mol)
                                  153.19076 (Kcal/Mol)
 Warning -- explicit consideration of  28 degrees of freedom as
           vibrations may cause significant error
 Vibrational temperatures:     81.76   105.43   112.64   156.50   185.30
          (Kelvin)            227.85   259.20   315.60   324.97   355.36
                              374.84   387.10   474.36   487.95   495.07
                              538.66   592.35   608.63   639.59   651.43
                              678.92   691.66   731.91   760.79   810.68
                              840.25   855.54   880.05   901.04  1004.93
                             1062.30  1178.10  1234.46  1314.02  1437.59
                             1465.20  1509.93  1532.45  1549.54  1556.05
                             1568.74  1588.04  1604.48  1634.20  1663.57
                             1730.27  1774.18  1790.77  1831.23  1854.67
                             1900.03  1916.73  1925.45  1942.10  1966.13
                             2009.11  2023.17  2050.54  2057.79  2083.26
                             2124.92  2130.32  2232.30  2286.22  2336.18
                             2471.12  2517.27  2731.58  3399.49  3571.54
                             4050.96  4270.09  4364.94  4387.18  4389.57
                             4416.83  4460.11  4969.97  5272.58  5297.53
                             5380.75  5393.60  5437.50

 Zero-point correction=                           0.244125 (Hartree/Particle)
 Thermal correction to Energy=                    0.259609
 Thermal correction to Enthalpy=                  0.260553
 Thermal correction to Gibbs Free Energy=         0.202659
 Sum of electronic and zero-point Energies=           -839.714976
 Sum of electronic and thermal Energies=              -839.699492
 Sum of electronic and thermal Enthalpies=            -839.698548
 Sum of electronic and thermal Free Energies=         -839.756442

                     E (Thermal)             CV                S
                      KCal/Mol        Cal/Mol-Kelvin    Cal/Mol-Kelvin
 Total                  162.907             59.467            121.849
 Electronic               0.000              0.000              0.000
 Translational            0.889              2.981             42.015
 Rotational               0.889              2.981             31.897
 Vibrational            161.130             53.506             47.937
 Vibration     1          0.596              1.975              4.565
 Vibration     2          0.599              1.967              4.063
 Vibration     3          0.600              1.964              3.933
 Vibration     4          0.606              1.942              3.291
 Vibration     5          0.611              1.924              2.964
 Vibration     6          0.621              1.893              2.569
 Vibration     7          0.629              1.867              2.327
 Vibration     8          0.647              1.812              1.964
 Vibration     9          0.650              1.802              1.912
 Vibration    10          0.661              1.768              1.752
 Vibration    11          0.669              1.745              1.658
 Vibration    12          0.673              1.730              1.602
 Vibration    13          0.712              1.616              1.262
 Vibration    14          0.719              1.597              1.216
 Vibration    15          0.723              1.587              1.193
 Vibration    16          0.746              1.525              1.062
 Vibration    17          0.776              1.445              0.921
 Vibration    18          0.785              1.420              0.882
 Vibration    19          0.804              1.373              0.812
 Vibration    20          0.811              1.355              0.787
 Vibration    21          0.829              1.312              0.732
 Vibration    22          0.837              1.293              0.708
 Vibration    23          0.864              1.231              0.637
 Vibration    24          0.884              1.186              0.590
 Vibration    25          0.919              1.110              0.517
 Vibration    26          0.941              1.066              0.478
 Vibration    27          0.952              1.043              0.459
 Vibration    28          0.971              1.007              0.430

 Normal termination of Gaussian 09 at Thu Jan 12 17:25:51 2017.
