 Gaussian 09, Revision E.01,
 Gaussian 09:  ES64L-G09RevE.01 30-Nov-2015

 ----------------------------------------------------------------------
 # opt=(calcfc,ts,noeigentest,maxcycle=1000,cartesian) b3lyp 6-31g(d) f
 req
 ----------------------------------------------------------------------

 -------------------------
 boat5_Alpha_B3LYP_6-31G_d
 -------------------------
 Symbolic Z-matrix:
 Charge =  0 Multiplicity = 1

 SCF Done:  E(RB3LYP) =  -839.965285218     A.U. after   14 cycles
 SCF Done:  E(RB3LYP) =  -839.965344042     A.U. after   11 cycles
 SCF Done:  E(RB3LYP) =  -839.965345502     A.U. after    8 cycles
 SCF Done:  E(RB3LYP) =  -839.965345581     A.U. after    8 cycles
 SCF Done:  E(RB3LYP) =  -839.965345633     A.U. after    8 cycles
 SCF Done:  E(RB3LYP) =  -839.965345563     A.U. after    7 cycles
 Optimization completed.
    -- Stationary point found.
 Normal termination of Gaussian 09 at Sat Jan 14 13:37:02 2017.

 --------------------------------------------------------------------
 #N Geom=AllCheck Guess=TCheck SCRF=Check GenChk RB3LYP/6-31G(d) Freq
 --------------------------------------------------------------------

 Structure from the checkpoint file:  "/scratch/10461812.yak.local/Gau-4998.chk"
 -------------------------
 boat5_Alpha_B3LYP_6-31G_d
 -------------------------
 Charge =  0 Multiplicity = 1

                         Standard orientation:
 ---------------------------------------------------------------------
 Center     Atomic      Atomic             Coordinates (Angstroms)
 Number     Number       Type             X           Y           Z
 ---------------------------------------------------------------------
      1          8           0        0.351491   -0.652136   -0.755591
      2          6           0       -1.256456    0.187819    0.953980
      3          6           0       -0.110828    1.772338   -0.760351
      4          6           0       -1.412563    1.392105   -0.000043
      5          6           0        1.023602    0.748427   -0.574908
      6          6           0       -0.648803   -1.035402    0.239667
      7          1           0       -1.693552    2.261101    0.608282
      8          1           0       -0.149484   -1.636933    1.013916
      9          1           0       -2.251865   -0.120868    1.294844
     10          1           0       -0.380618    1.829879   -1.818885
     11          6           0       -1.667418   -1.897828   -0.521876
     12          1           0       -1.141449   -2.726939   -1.022709
     13          1           0       -2.141699   -1.284618   -1.288900
     14          8           0       -2.709132   -2.372333    0.318983
     15          1           0       -2.321389   -2.964424    0.982772
     16          8           0        0.396617    3.038516   -0.381252
     17          1           0        0.979848    2.852856    0.378913
     18          8           0       -2.401110    1.130375   -1.004539
     19          1           0       -3.250862    0.996034   -0.555028
     20          8           0       -0.540870    0.535950    2.122545
     21          1           0        0.379791    0.728271    1.823752
     22          1           0        1.684989    0.720322   -1.456630
     23          8           0        1.652413    0.868126    0.589108
     24          1           0        2.989848   -1.519552   -0.226914
     25          8           0        2.262088   -2.142109   -0.804350
     26          1           0        2.118022   -2.967187   -0.313874
     27          1           0        1.274228   -1.476611   -0.804923
     28          8           0        3.632366   -0.609886    0.507921
     29          1           0        4.349189   -0.186398    0.010393
     30          1           0        2.838891    0.118284    0.613570
 ---------------------------------------------------------------------

 SCF Done:  E(RB3LYP) =  -839.965345563     A.U. after    1 cycles

 The electronic state is 1-A.
 Alpha  occ. eigenvalues --  -19.20264 -19.19978 -19.16804 -19.16213 -19.14883
 Alpha  occ. eigenvalues --  -19.13095 -19.11923 -19.11376 -10.28951 -10.25548
 Alpha  occ. eigenvalues --  -10.24193 -10.23309 -10.22946 -10.22882  -1.08377
 Alpha  occ. eigenvalues --   -1.05324  -1.03289  -1.02421  -1.01994  -1.00903
 Alpha  occ. eigenvalues --   -0.99799  -0.97175  -0.77529  -0.75347  -0.68312
 Alpha  occ. eigenvalues --   -0.64621  -0.63109  -0.58998  -0.57162  -0.55523
 Alpha  occ. eigenvalues --   -0.54296  -0.53002  -0.51257  -0.51083  -0.48944
 Alpha  occ. eigenvalues --   -0.48644  -0.46269  -0.45553  -0.44648  -0.43076
 Alpha  occ. eigenvalues --   -0.41817  -0.40739  -0.39860  -0.38953  -0.38138
 Alpha  occ. eigenvalues --   -0.36639  -0.36108  -0.35456  -0.33685  -0.33214
 Alpha  occ. eigenvalues --   -0.32465  -0.30865  -0.29089  -0.28380  -0.27661
 Alpha  occ. eigenvalues --   -0.26149  -0.24773  -0.23987
 Alpha virt. eigenvalues --    0.02538   0.05002   0.06161   0.07353   0.09564
 Alpha virt. eigenvalues --    0.10582   0.11454   0.13243   0.13485   0.14888
 Alpha virt. eigenvalues --    0.15711   0.17047   0.17325   0.18352   0.19408

 Mulliken charges:
               1
     1  O   -0.616362
     2  C    0.087902
     3  C    0.120145
     4  C    0.095525
     5  C    0.303853
     6  C    0.089580
     7  H    0.152128
     8  H    0.124269
     9  H    0.144173
    10  H    0.160599
    11  C   -0.053796
    12  H    0.117650
    13  H    0.190266
    14  O   -0.607146
    15  H    0.392360
    16  O   -0.636949
    17  H    0.401430
    18  O   -0.632330
    19  H    0.397609
    20  O   -0.671353
    21  H    0.421547
    22  H    0.120133
    23  O   -0.691266
    24  H    0.466359
    25  O   -0.828419
    26  H    0.421693
    27  H    0.495517
    28  O   -0.835517
    29  H    0.407749
    30  H    0.462651
 Sum of Mulliken charges =   0.00000

 Dipole moment (field-independent basis, Debye):
    X=              2.2658    Y=             -4.7719    Z=             -0.5784  Tot=              5.3141
 Quadrupole moment (field-independent basis, Debye-Ang):
   XX=            -75.3664   YY=            -80.6319   ZZ=            -92.7236
   XY=             -3.1273   XZ=             -4.8692   YZ=             -1.5433

  Exact polarizability: 107.380   2.562 100.013  -0.418   0.029  82.157
 Approx polarizability: 139.846   4.502 131.412   2.645   1.632 128.132

 ******    1 imaginary frequencies (negative Signs) ******

                      1                      2                      3
                      A                      A                      A
 Frequencies --   -948.2413                21.2325                52.5757
 Red. masses --      1.2035                 5.7609                 5.3084
 Frc consts  --      0.6376                 0.0015                 0.0086
 IR Inten    --    805.0763                 0.6081                 1.0656

                      4                      5                      6
                      A                      A                      A
 Frequencies --     78.4755                85.2383               121.4466
 Red. masses --      4.4246                 5.4135                 6.5629
 Frc consts  --      0.0161                 0.0232                 0.0570
 IR Inten    --      4.4460                 1.0249                 1.8507

                      7                      8                      9
                      A                      A                      A
 Frequencies --    152.9923               200.3291               206.1062
 Red. masses --      4.3035                 3.8474                 5.4646
 Frc consts  --      0.0593                 0.0910                 0.1368
 IR Inten    --      6.9376                13.4960                 3.0116

                     10                     11                     12
                      A                      A                      A
 Frequencies --    228.5510               239.3476               275.3332
 Red. masses --      6.5251                 4.9531                 5.1987
 Frc consts  --      0.2008                 0.1672                 0.2322
 IR Inten    --      3.6756                13.0909                 7.8386

                     13                     14                     15
                      A                      A                      A
 Frequencies --    309.8284               331.3283               351.1749
 Red. masses --      1.8726                 2.0073                 1.7229
 Frc consts  --      0.1059                 0.1298                 0.1252
 IR Inten    --     17.5033                55.0721               170.9968

                     16                     17                     18
                      A                      A                      A
 Frequencies --    361.5952               371.5192               395.2705
 Red. masses --      4.0693                 2.1937                 1.2255
 Frc consts  --      0.3135                 0.1784                 0.1128
 IR Inten    --     23.2642                12.3251               120.3025

                     19                     20                     21
                      A                      A                      A
 Frequencies --    403.7466               449.2060               471.8748
 Red. masses --      2.6789                 4.2135                 3.2633
 Frc consts  --      0.2573                 0.5009                 0.4281
 IR Inten    --     21.3357               135.6661                92.3233

                     22                     23                     24
                      A                      A                      A
 Frequencies --    490.3653               516.0743               532.2988
 Red. masses --      3.9273                 1.8369                 1.5055
 Frc consts  --      0.5564                 0.2882                 0.2513
 IR Inten    --    104.5414                16.2979               105.3844

                     25                     26                     27
                      A                      A                      A
 Frequencies --    565.2489               576.6510               583.0825
 Red. masses --      3.3299                 3.5004                 3.0470
 Frc consts  --      0.6268                 0.6858                 0.6103
 IR Inten    --     32.2644                74.6326               325.9341

                     28                     29                     30
                      A                      A                      A
 Frequencies --    628.2846               643.3400               724.0283
 Red. masses --      1.5979                 2.9190                 3.5285
 Frc consts  --      0.3716                 0.7118                 1.0898
 IR Inten    --     83.5619                15.8776                50.4003

                     31                     32                     33
                      A                      A                      A
 Frequencies --    758.8811               776.3989               799.0157
 Red. masses --      1.1533                 1.2489                 2.5246
 Frc consts  --      0.3913                 0.4436                 0.9496
 IR Inten    --     69.9626               113.9556                38.7782

                     34                     35                     36
                      A                      A                      A
 Frequencies --    823.0889               870.6278               904.3457
 Red. masses --      3.4823                 2.7582                 4.8199
 Frc consts  --      1.3900                 1.2318                 2.3225
 IR Inten    --    167.9254               165.5209               216.3748

                     37                     38                     39
                      A                      A                      A
 Frequencies --    969.7044              1001.7934              1049.1175
 Red. masses --      3.0656                 2.0645                 2.7726
 Frc consts  --      1.6984                 1.2208                 1.7980
 IR Inten    --     28.4346                34.1259                57.5840

                     40                     41                     42
                      A                      A                      A
 Frequencies --   1059.8916              1091.4973              1093.0767
 Red. masses --      3.3929                 3.5561                 3.7699
 Frc consts  --      2.2457                 2.4962                 2.6539
 IR Inten    --     74.5209                53.2196                47.6089

                     43                     44                     45
                      A                      A                      A
 Frequencies --   1104.9917              1118.4263              1122.3533
 Red. masses --      3.1182                 2.0589                 2.9060
 Frc consts  --      2.2432                 1.5174                 2.1568
 IR Inten    --     21.8260                20.3935               100.4392

                     46                     47                     48
                      A                      A                      A
 Frequencies --   1165.5879              1210.6776              1220.1773
 Red. masses --      1.2437                 1.3041                 1.1665
 Frc consts  --      0.9955                 1.1262                 1.0233
 IR Inten    --    177.5017                21.2546               140.3409

                     49                     50                     51
                      A                      A                      A
 Frequencies --   1267.7376              1280.8667              1298.1899
 Red. masses --      1.5453                 1.9462                 1.2377
 Frc consts  --      1.4633                 1.8812                 1.2290
 IR Inten    --     38.6558                32.8323               171.6876

                     52                     53                     54
                      A                      A                      A
 Frequencies --   1318.4974              1330.8968              1341.3879
 Red. masses --      1.2435                 1.1768                 1.1939
 Frc consts  --      1.2736                 1.2281                 1.2656
 IR Inten    --    605.6125                59.6898                 2.7947

                     55                     56                     57
                      A                      A                      A
 Frequencies --   1352.3815              1367.0826              1374.4300
 Red. masses --      1.2546                 1.3173                 1.4048
 Frc consts  --      1.3519                 1.4505                 1.5635
 IR Inten    --     60.0818                50.2966                12.6264

                     58                     59                     60
                      A                      A                      A
 Frequencies --   1402.2242              1408.6328              1426.0630
 Red. masses --      1.2816                 1.4517                 1.4584
 Frc consts  --      1.4847                 1.6972                 1.7475
 IR Inten    --    103.1651                11.2717                36.4882

                     61                     62                     63
                      A                      A                      A
 Frequencies --   1438.1613              1449.1788              1466.9200
 Red. masses --      1.3299                 1.3799                 1.3604
 Frc consts  --      1.6206                 1.7075                 1.7247
 IR Inten    --     59.2601               381.2935                48.8338

                     64                     65                     66
                      A                      A                      A
 Frequencies --   1521.9062              1535.1394              1544.5670
 Red. masses --      1.1459                 1.0818                 1.1127
 Frc consts  --      1.5638                 1.5020                 1.5641
 IR Inten    --    726.4860                11.8898                28.1623

                     67                     68                     69
                      A                      A                      A
 Frequencies --   1621.2234              1683.2369              1787.8313
 Red. masses --      1.0693                 1.0732                 1.0764
 Frc consts  --      1.6559                 1.7915                 2.0272
 IR Inten    --    796.9687              1356.8814               658.6071

                     70                     71                     72
                      A                      A                      A
 Frequencies --   1844.6288              2109.3128              2993.0655
 Red. masses --      1.0344                 1.0828                 1.0865
 Frc consts  --      2.0737                 2.8385                 5.7346
 IR Inten    --     42.9169              2779.2950                93.8987

                     73                     74                     75
                      A                      A                      A
 Frequencies --   2996.9808              3018.2090              3054.2038
 Red. masses --      1.0744                 1.0842                 1.0857
 Frc consts  --      5.6857                 5.8192                 5.9670
 IR Inten    --     88.4462                56.9940                25.8917

                     76                     77                     78
                      A                      A                      A
 Frequencies --   3071.0758              3101.9479              3162.7179
 Red. masses --      1.0857                 1.0869                 1.0924
 Frc consts  --      6.0333                 6.1620                 6.4379
 IR Inten    --     25.9820                18.6419                 5.2074

                     79                     80                     81
                      A                      A                      A
 Frequencies --   3435.3676              3653.8391              3733.9390
 Red. masses --      1.0667                 1.0647                 1.0662
 Frc consts  --      7.4174                 8.3748                 8.7586
 IR Inten    --    292.9599                47.7819                13.3168

                     82                     83                     84
                      A                      A                      A
 Frequencies --   3734.7690              3781.2948              3785.2834
 Red. masses --      1.0661                 1.0649                 1.0652
 Frc consts  --      8.7616                 8.9711                 8.9920
 IR Inten    --     14.5701                58.8140                41.4386

 - Thermochemistry -
 -------------------
 Temperature   298.150 Kelvin.  Pressure   1.00000 Atm.
 Atom     1 has atomic number  8 and mass  15.99491

 Molecular mass:   216.08452 amu.
 Principal axes and moments of inertia in atomic units:
                           1         2         3
     Eigenvalues --  2507.680663179.110034513.02171
           X            0.99983  -0.01838  -0.00343
           Y            0.01839   0.99983   0.00302
           Z            0.00338  -0.00308   0.99999
 This molecule is an asymmetric top.
 Rotational symmetry number  1.
 Warning -- assumption of classical behavior for rotation
           may cause significant error
 Rotational temperatures (Kelvin)      0.03454     0.02724     0.01919
 Rotational constants (GHZ):           0.71969     0.56769     0.39990
    1 imaginary frequencies ignored.
 Zero-point vibrational energy     635213.4 (Joules/Mol)
                                  151.81965 (Kcal/Mol)
 Warning -- explicit consideration of  26 degrees of freedom as
           vibrations may cause significant error
 Vibrational temperatures:     30.55    75.64   112.91   122.64   174.73
          (Kelvin)            220.12   288.23   296.54   328.83   344.37
                              396.14   445.77   476.71   505.26   520.25
                              534.53   568.71   580.90   646.31   678.92
                              705.53   742.51   765.86   813.27   829.67
                              838.92   903.96   925.62  1041.71  1091.86
                             1117.06  1149.60  1184.24  1252.64  1301.15
                             1395.19  1441.36  1509.44  1524.95  1570.42
                             1572.69  1589.83  1609.16  1614.81  1677.02
                             1741.89  1755.56  1823.99  1842.88  1867.80
                             1897.02  1914.86  1929.96  1945.77  1966.92
                             1977.50  2017.49  2026.71  2051.78  2069.19
                             2085.04  2110.57  2189.68  2208.72  2222.28
                             2332.58  2421.80  2572.29  2654.01  3034.83
                             4306.35  4311.98  4342.52  4394.31  4418.59
                             4463.01  4550.44  4942.72  5257.05  5372.30
                             5373.49  5440.43  5446.17

 Zero-point correction=                           0.241940 (Hartree/Particle)
 Thermal correction to Energy=                    0.257378
 Thermal correction to Enthalpy=                  0.258322
 Thermal correction to Gibbs Free Energy=         0.199289
 Sum of electronic and zero-point Energies=           -839.723406
 Sum of electronic and thermal Energies=              -839.707968
 Sum of electronic and thermal Enthalpies=            -839.707024
 Sum of electronic and thermal Free Energies=         -839.766056

                     E (Thermal)             CV                S
                      KCal/Mol        Cal/Mol-Kelvin    Cal/Mol-Kelvin
 Total                  161.507             59.085            124.244
 Electronic               0.000              0.000              0.000
 Translational            0.889              2.981             42.015
 Rotational               0.889              2.981             31.954
 Vibrational            159.729             53.123             50.276
 Vibration     1          0.593              1.985              6.515
 Vibration     2          0.596              1.977              4.718
 Vibration     3          0.600              1.964              3.929
 Vibration     4          0.601              1.959              3.766
 Vibration     5          0.609              1.931              3.077
 Vibration     6          0.619              1.899              2.635
 Vibration     7          0.638              1.839              2.130
 Vibration     8          0.641              1.831              2.078
 Vibration     9          0.651              1.797              1.890
 Vibration    10          0.657              1.780              1.808
 Vibration    11          0.677              1.719              1.562
 Vibration    12          0.699              1.655              1.363
 Vibration    13          0.714              1.613              1.254
 Vibration    14          0.728              1.573              1.161
 Vibration    15          0.736              1.551              1.115
 Vibration    16          0.743              1.531              1.074
 Vibration    17          0.762              1.480              0.980
 Vibration    18          0.769              1.462              0.949
 Vibration    19          0.808              1.363              0.798
 Vibration    20          0.829              1.312              0.732
 Vibration    21          0.846              1.271              0.683
 Vibration    22          0.871              1.214              0.619
 Vibration    23          0.887              1.179              0.582
 Vibration    24          0.921              1.106              0.513
 Vibration    25          0.933              1.082              0.492
 Vibration    26          0.940              1.068              0.480

 Normal termination of Gaussian 09 at Sat Jan 14 13:58:09 2017.
