 Gaussian 09, Revision E.01,
 Gaussian 09:  ES64L-G09RevE.01 30-Nov-2015

 --------------------
 # opt b3lyp/6-31g(d)
 --------------------

 ----------------------------
 Glo_A_ch1_GS_b3lyp_631Gd_opt
 ----------------------------
 Symbolic Z-matrix:
 Charge =  0 Multiplicity = 1

 SCF Done:  E(RB3LYP) =  -687.139615831     A.U. after   14 cycles

 The electronic state is 1-A.
 Alpha  occ. eigenvalues --  -19.17236 -19.16143 -19.16024 -19.15613 -19.14723
 Alpha  occ. eigenvalues --  -19.14230 -10.28873 -10.24794 -10.24571 -10.24056
 Alpha  occ. eigenvalues --  -10.23852 -10.23419  -1.07652  -1.04871  -1.03117
 Alpha  occ. eigenvalues --   -1.02136  -1.01085  -1.00487  -0.78753  -0.77314
 Alpha  occ. eigenvalues --   -0.69099  -0.64963  -0.62256  -0.59096  -0.55397
 Alpha  occ. eigenvalues --   -0.53615  -0.52283  -0.50591  -0.50211  -0.47652
 Alpha  occ. eigenvalues --   -0.46951  -0.44092  -0.43609  -0.42146  -0.41631
 Alpha  occ. eigenvalues --   -0.40319  -0.38601  -0.36665  -0.36104  -0.35559
 Alpha  occ. eigenvalues --   -0.33181  -0.31531  -0.30962  -0.29883  -0.28672
 Alpha  occ. eigenvalues --   -0.27131  -0.26559  -0.25829
 Alpha virt. eigenvalues --    0.04566   0.06316   0.07097   0.08153   0.10420
 Alpha virt. eigenvalues --    0.11688   0.12484   0.13755   0.14694   0.15014
 Alpha virt. eigenvalues --    0.16131   0.17486   0.18443   0.19665   0.21378

 Mulliken charges:
               1
     1  C    0.298392
     2  O   -0.492351
     3  C    0.137264
     4  C    0.089148
     5  C    0.077399
     6  C    0.109549
     7  H    0.131463
     8  H    0.154096
     9  H    0.104931
    10  H    0.130790
    11  O   -0.636259
    12  O   -0.653739
    13  O   -0.631797
    14  H    0.404611
    15  H    0.410535
    16  H    0.390021
    17  C   -0.045884
    18  O   -0.609323
    19  H    0.159922
    20  H    0.140547
    21  H    0.385340
    22  H    0.146245
    23  O   -0.603105
    24  H    0.402206
 Sum of Mulliken charges =  -0.00000

 Dipole moment (field-independent basis, Debye):
    X=             -0.8429    Y=              1.2265    Z=              2.2389  Tot=              2.6884
 Quadrupole moment (field-independent basis, Debye-Ang):
   XX=            -78.2323   YY=            -68.6431   ZZ=            -65.3809
   XY=              1.7332   XZ=             -7.6429   YZ=              0.9712

 Optimization completed.
    -- Stationary point found.

                         Standard orientation:
 ---------------------------------------------------------------------
 Center     Atomic      Atomic             Coordinates (Angstroms)
 Number     Number       Type             X           Y           Z
 ---------------------------------------------------------------------
      1          6           0        0.564588   -1.589869   -0.206378
      2          8           0       -0.728426   -1.147422   -0.597297
      3          6           0        1.595710   -0.503171   -0.525274
      4          6           0        1.210252    0.787633    0.190059
      5          6           0       -0.221388    1.195504   -0.157988
      6          6           0       -1.195358    0.026431    0.076510
      7          1           0        1.530197   -0.320056   -1.610251
      8          1           0       -0.255260    1.489554   -1.213302
      9          1           0       -1.245502   -0.170987    1.161476
     10          1           0        1.275091    0.608745    1.276633
     11          8           0        2.889887   -0.942083   -0.167441
     12          8           0        2.146783    1.785019   -0.201397
     13          8           0       -0.587473    2.377466    0.563578
     14          1           0        1.800677    2.631280    0.128221
     15          1           0        3.466979   -0.165400   -0.257283
     16          1           0       -0.588760    2.150219    1.509327
     17          6           0       -2.599522    0.326511   -0.443905
     18          8           0       -3.566577   -0.635710   -0.051864
     19          1           0       -2.578884    0.303221   -1.537914
     20          1           0       -2.878760    1.342346   -0.128729
     21          1           0       -3.718342   -0.531989    0.900182
     22          1           0        0.746910   -2.478864   -0.821125
     23          8           0        0.630589   -1.895306    1.164234
     24          1           0        0.041706   -2.652014    1.316117
 ---------------------------------------------------------------------

 Normal termination of Gaussian 09 at Thu Jun  9 20:41:12 2016.
