 Gaussian 09, Revision E.01,
 Gaussian 09:  ES64L-G09RevE.01 30-Nov-2015

 --------------------
 # opt b3lyp/6-31g(d)
 --------------------

 ------------------------
 Glo_A_ch2_GS_b3lyp_631Gd
 ------------------------
 Symbolic Z-matrix:
 Charge =  0 Multiplicity = 1

 SCF Done:  E(RB3LYP) =  -687.128214060     A.U. after   14 cycles
 SCF Done:  E(RB3LYP) =  -687.140119263     A.U. after   12 cycles
 SCF Done:  E(RB3LYP) =  -687.140104490     A.U. after   12 cycles
 SCF Done:  E(RB3LYP) =  -687.141269468     A.U. after    9 cycles
 SCF Done:  E(RB3LYP) =  -687.141101723     A.U. after   12 cycles
 SCF Done:  E(RB3LYP) =  -687.141784232     A.U. after    9 cycles
 SCF Done:  E(RB3LYP) =  -687.142155854     A.U. after   12 cycles
 SCF Done:  E(RB3LYP) =  -687.142403815     A.U. after   12 cycles
 SCF Done:  E(RB3LYP) =  -687.142698880     A.U. after   11 cycles
 SCF Done:  E(RB3LYP) =  -687.143000250     A.U. after   11 cycles
 SCF Done:  E(RB3LYP) =  -687.143083888     A.U. after   11 cycles
 SCF Done:  E(RB3LYP) =  -687.143098310     A.U. after   10 cycles
 SCF Done:  E(RB3LYP) =  -687.143109696     A.U. after   10 cycles
 SCF Done:  E(RB3LYP) =  -687.143115078     A.U. after    8 cycles
 SCF Done:  E(RB3LYP) =  -687.143117019     A.U. after    8 cycles
 SCF Done:  E(RB3LYP) =  -687.143117390     A.U. after    7 cycles
 Optimization completed.
    -- Stationary point found.

                         Standard orientation:
 ---------------------------------------------------------------------
 Center     Atomic      Atomic             Coordinates (Angstroms)
 Number     Number       Type             X           Y           Z
 ---------------------------------------------------------------------
      1          6           0       -1.066899    1.050334   -0.387531
      2          8           0       -0.408863    1.168572    0.857718
      3          6           0       -1.307290   -0.412122   -0.790821
      4          6           0        0.005147   -1.214855   -0.728539
      5          6           0        0.698987   -1.011111    0.629354
      6          6           0        0.861171    0.483642    0.968363
      7          1           0       -1.706872   -0.424511   -1.819187
      8          1           0        1.695349   -1.458313    0.591341
      9          1           0        1.082602    0.520804    2.037997
     10          1           0       -0.219302   -2.282726   -0.843262
     11          8           0       -2.237604   -1.008237    0.106259
     12          8           0        0.906951   -0.767109   -1.750421
     13          8           0       -0.014846   -1.693427    1.644831
     14          1           0        0.560478   -1.035505   -2.615221
     15          1           0       -2.864739   -0.292714    0.326653
     16          1           0       -0.955002   -1.459584    1.525602
     17          6           0        1.967533    1.242586    0.180866
     18          8           0        3.041835    0.418786   -0.236922
     19          1           0        2.399271    2.008471    0.832505
     20          1           0        1.519581    1.765676   -0.673988
     21          1           0        2.693821   -0.112774   -0.974884
     22          1           0       -0.504601    1.568041   -1.178396
     23          8           0       -2.341148    1.629297   -0.222805
     24          1           0       -2.223090    2.389227    0.371416
 ---------------------------------------------------------------------

 The electronic state is 1-A.
 Alpha  occ. eigenvalues --  -19.18354 -19.17870 -19.16778 -19.16621 -19.13427
 Alpha  occ. eigenvalues --  -19.13050 -10.29960 -10.25584 -10.25446 -10.23693
 Alpha  occ. eigenvalues --  -10.23559 -10.22797  -1.09154  -1.05420  -1.03676
 Alpha  occ. eigenvalues --   -1.02240  -1.00751  -1.00241  -0.78340  -0.76429
 Alpha  occ. eigenvalues --   -0.69658  -0.65632  -0.63654  -0.57689  -0.55043
 Alpha  occ. eigenvalues --   -0.53437  -0.53067  -0.51715  -0.51097  -0.48431
 Alpha  occ. eigenvalues --   -0.46280  -0.45402  -0.43767  -0.42698  -0.41061
 Alpha  occ. eigenvalues --   -0.40740  -0.39249  -0.37662  -0.36707  -0.34464
 Alpha  occ. eigenvalues --   -0.33541  -0.32208  -0.31457  -0.31004  -0.28636
 Alpha  occ. eigenvalues --   -0.28213  -0.26451  -0.24167
 Alpha virt. eigenvalues --    0.03217   0.06179   0.09361   0.09677   0.11046
 Alpha virt. eigenvalues --    0.11849   0.12994   0.13904   0.14911   0.15271
 Alpha virt. eigenvalues --    0.17134   0.18187   0.18795   0.19843   0.21440

 Mulliken charges:
               1
     1  C    0.351791
     2  O   -0.526935
     3  C    0.094109
     4  C    0.074032
     5  C    0.103157
     6  C    0.092348
     7  H    0.124261
     8  H    0.160796
     9  H    0.163371
    10  H    0.157705
    11  O   -0.648849
    12  O   -0.648341
    13  O   -0.647597
    14  H    0.408516
    15  H    0.420857
    16  H    0.416314
    17  C   -0.053407
    18  O   -0.632311
    19  H    0.149709
    20  H    0.130888
    21  H    0.416919
    22  H    0.124571
    23  O   -0.644113
    24  H    0.412207
 Sum of Mulliken charges =   0.00000

 Dipole moment (field-independent basis, Debye):
    X=             -2.0904    Y=              1.4776    Z=             -2.9207  Tot=              3.8838
 Quadrupole moment (field-independent basis, Debye-Ang):
   XX=            -78.5712   YY=            -69.1155   ZZ=            -65.6815
   XY=             -3.1897   XZ=             -2.1999   YZ=              7.6682

 Normal termination of Gaussian 09 at Thu Jun  9 20:30:44 2016.
