 Gaussian 09, Revision E.01,
 Gaussian 09:  ES64L-G09RevE.01 30-Nov-2015

 -----------------------------------------
 # opt=(MaxCycle=1000) freq B3LYP/6-31G(d)
 -----------------------------------------

 -------------------------------------------------
 ./chairs/1/glo_2w_beta_ircr_chair_B3LYP_631Gd.out
 -------------------------------------------------
 Symbolic Z-matrix:
 Charge =  0 Multiplicity = 1

 SCF Done:  E(RB3LYP) =  -839.995096999     A.U. after   14 cycles
 Optimization completed.
    -- Stationary point found.
 Normal termination of Gaussian 09 at Sun Jan 15 12:19:53 2017.

 --------------------------------------------------------------------
 #N Geom=AllCheck Guess=TCheck SCRF=Check GenChk RB3LYP/6-31G(d) Freq
 --------------------------------------------------------------------

 Structure from the checkpoint file:  "/scratch/10462968.yak.local/Gau-26264.chk"
 -------------------------------------------------
 ./chairs/1/glo_2w_beta_ircr_chair_B3LYP_631Gd.out
 -------------------------------------------------
 Charge =  0 Multiplicity = 1

                         Standard orientation:
 ---------------------------------------------------------------------
 Center     Atomic      Atomic             Coordinates (Angstroms)
 Number     Number       Type             X           Y           Z
 ---------------------------------------------------------------------
      1          6           0        1.573251    1.147841    0.011362
      2          8           0        0.399735   -1.002978   -0.433376
      3          8           0        2.513633    1.037115   -0.754455
      4          1           0        3.767674   -0.126668   -0.230591
      5          1           0        2.244017   -2.440462    1.788450
      6          1           0        4.716838   -1.233486   -0.746229
      7          8           0        4.276985   -0.922669    0.059473
      8          1           0        3.045048   -2.027139    0.527965
      9          8           0        2.231512   -2.521360    0.823068
     10          1           0        1.009471   -1.636128    0.033269
     11          6           0        0.313805    1.931222   -0.329869
     12          6           0       -0.960118    1.426662    0.374232
     13          6           0       -1.643436    0.188302   -0.228380
     14          6           0       -0.913061   -1.125299    0.073471
     15          1           0        1.647543    0.807832    1.062368
     16          1           0        0.177298    1.929227   -1.420511
     17          1           0       -1.706965    0.317157   -1.321727
     18          1           0       -0.915709   -1.265727    1.169371
     19          1           0       -0.723525    1.216126    1.432369
     20          8           0        0.615694    3.238419    0.151241
     21          8           0       -1.866744    2.524387    0.298921
     22          8           0       -2.950645    0.178794    0.348518
     23          1           0       -2.746832    2.152631    0.490524
     24          1           0       -0.250469    3.665400    0.285897
     25          1           0       -3.370681   -0.661442    0.076205
     26          6           0       -1.593490   -2.335047   -0.592141
     27          8           0       -2.965441   -2.510428   -0.199142
     28          1           0       -1.009333   -3.243030   -0.390470
     29          1           0       -1.609337   -2.181686   -1.674915
     30          1           0       -2.974583   -2.844923    0.711991
 ---------------------------------------------------------------------

 SCF Done:  E(RB3LYP) =  -839.995096999     A.U. after    1 cycles

 The electronic state is 1-A.
 Alpha  occ. eigenvalues --  -19.18179 -19.15987 -19.15345 -19.15286 -19.15240
 Alpha  occ. eigenvalues --  -19.15179 -19.14717 -19.14226 -10.28718 -10.24856
 Alpha  occ. eigenvalues --  -10.24753 -10.24568 -10.24508 -10.24168  -1.05930
 Alpha  occ. eigenvalues --   -1.05371  -1.04325  -1.02667  -1.01945  -1.01433
 Alpha  occ. eigenvalues --   -1.00024  -0.99948  -0.78258  -0.75048  -0.69670
 Alpha  occ. eigenvalues --   -0.64106  -0.60862  -0.58513  -0.55705  -0.53654
 Alpha  occ. eigenvalues --   -0.53152  -0.53091  -0.52365  -0.50150  -0.48887
 Alpha  occ. eigenvalues --   -0.46935  -0.46366  -0.45050  -0.44117  -0.43347
 Alpha  occ. eigenvalues --   -0.42414  -0.41239  -0.39907  -0.39260  -0.37797
 Alpha  occ. eigenvalues --   -0.37204  -0.35676  -0.35515  -0.34508  -0.34305
 Alpha  occ. eigenvalues --   -0.31680  -0.31040  -0.30721  -0.29279  -0.27839
 Alpha  occ. eigenvalues --   -0.26712  -0.26282  -0.26009
 Alpha virt. eigenvalues --   -0.02665   0.04089   0.04644   0.08016   0.09182
 Alpha virt. eigenvalues --    0.09901   0.11889   0.12613   0.13078   0.13892
 Alpha virt. eigenvalues --    0.15590   0.15795   0.16659   0.17795   0.18286

 Mulliken charges:
               1
     1  C    0.318330
     2  O   -0.677178
     3  O   -0.440304
     4  H    0.438988
     5  H    0.394209
     6  H    0.402355
     7  O   -0.819923
     8  H    0.437241
     9  O   -0.827329
    10  H    0.448068
    11  C    0.105851
    12  C    0.116259
    13  C    0.128513
    14  C    0.091577
    15  H    0.108622
    16  H    0.142327
    17  H    0.129984
    18  H    0.105340
    19  H    0.115638
    20  O   -0.651694
    21  O   -0.680553
    22  O   -0.693540
    23  H    0.429021
    24  H    0.426243
    25  H    0.423641
    26  C   -0.075967
    27  O   -0.620941
    28  H    0.151090
    29  H    0.170020
    30  H    0.404115
 Sum of Mulliken charges =  -0.00000

 Dipole moment (field-independent basis, Debye):
    X=             -1.2409    Y=             -3.4614    Z=              1.8914  Tot=              4.1350
 Quadrupole moment (field-independent basis, Debye-Ang):
   XX=            -83.7507   YY=            -88.0049   ZZ=            -78.1522
   XY=             -2.8483   XZ=             -3.9588   YZ=             -3.6178

  Exact polarizability: 111.178  -0.494 102.049  -5.917  -1.455  79.763
 Approx polarizability: 144.024  -1.578 129.122 -12.345  -2.646 124.101

                      1                      2                      3
                      A                      A                      A
 Frequencies --     27.1228                34.1490                51.8960
 Red. masses --      5.7494                 5.5427                 6.5666
 Frc consts  --      0.0025                 0.0038                 0.0104
 IR Inten    --      0.6232                 0.6699                 0.5889

                      4                      5                      6
                      A                      A                      A
 Frequencies --     63.3263                71.2366               103.0851
 Red. masses --      6.5274                 5.5484                 8.1951
 Frc consts  --      0.0154                 0.0166                 0.0513
 IR Inten    --      2.4646                 0.9612                 0.3036

                      7                      8                      9
                      A                      A                      A
 Frequencies --    127.0657               161.8605               168.8228
 Red. masses --      7.7413                 4.2523                 3.0792
 Frc consts  --      0.0736                 0.0656                 0.0517
 IR Inten    --      1.0245                 3.6162                 0.6305

                     10                     11                     12
                      A                      A                      A
 Frequencies --    199.3884               224.3175               244.4694
 Red. masses --      6.2563                 4.5698                 3.9865
 Frc consts  --      0.1465                 0.1355                 0.1404
 IR Inten    --     12.1187                 9.2739                23.3631

                     13                     14                     15
                      A                      A                      A
 Frequencies --    253.7453               261.7519               281.7432
 Red. masses --      1.3770                 2.2853                 4.7054
 Frc consts  --      0.0522                 0.0923                 0.2201
 IR Inten    --     95.1907                24.4268                20.9645

                     16                     17                     18
                      A                      A                      A
 Frequencies --    302.6892               335.3752               348.5307
 Red. masses --      4.2535                 1.4026                 1.7688
 Frc consts  --      0.2296                 0.0929                 0.1266
 IR Inten    --      7.3951               107.2884               117.4922

                     19                     20                     21
                      A                      A                      A
 Frequencies --    359.2141               374.9090               398.2892
 Red. masses --      1.8481                 3.0814                 2.3248
 Frc consts  --      0.1405                 0.2552                 0.2173
 IR Inten    --    120.4542                20.2540                67.7241

                     22                     23                     24
                      A                      A                      A
 Frequencies --    405.0449               419.3011               428.7196
 Red. masses --      3.2591                 2.7843                 1.2832
 Frc consts  --      0.3150                 0.2884                 0.1390
 IR Inten    --     30.4658                50.0738                23.5454

                     25                     26                     27
                      A                      A                      A
 Frequencies --    445.3480               451.7181               492.0039
 Red. masses --      1.8696                 3.6682                 2.7501
 Frc consts  --      0.2185                 0.4410                 0.3922
 IR Inten    --     99.1190                22.5831                37.3296

                     28                     29                     30
                      A                      A                      A
 Frequencies --    505.9561               545.2334               557.1794
 Red. masses --      1.3415                 1.2378                 2.3089
 Frc consts  --      0.2023                 0.2168                 0.4223
 IR Inten    --     39.6399                27.6728                13.3111

                     31                     32                     33
                      A                      A                      A
 Frequencies --    591.8696               653.4834               668.7198
 Red. masses --      5.9696                 2.6980                 1.1377
 Frc consts  --      1.2321                 0.6788                 0.2997
 IR Inten    --      8.5439                67.5894                56.9618

                     34                     35                     36
                      A                      A                      A
 Frequencies --    729.2576               826.5690               903.8830
 Red. masses --      1.0738                 1.0536                 1.7292
 Frc consts  --      0.3365                 0.4241                 0.8324
 IR Inten    --    134.3657               131.0581                 1.5317

                     37                     38                     39
                      A                      A                      A
 Frequencies --    966.8954               994.0229              1006.4780
 Red. masses --      1.8948                 1.1348                 3.8715
 Frc consts  --      1.0437                 0.6606                 2.3106
 IR Inten    --     88.5162               244.0144                81.6996

                     40                     41                     42
                      A                      A                      A
 Frequencies --   1022.4002              1037.8362              1058.3051
 Red. masses --      3.3866                 3.5792                 3.1130
 Frc consts  --      2.0857                 2.2714                 2.0542
 IR Inten    --     13.6211                74.8621                 6.2514

                     43                     44                     45
                      A                      A                      A
 Frequencies --   1091.0851              1098.7883              1113.2706
 Red. masses --      2.9216                 3.0467                 4.5955
 Frc consts  --      2.0492                 2.1672                 3.3557
 IR Inten    --     39.6149                84.8809                80.5080

                     46                     47                     48
                      A                      A                      A
 Frequencies --   1119.3621              1121.3702              1139.6191
 Red. masses --      4.4159                 3.2020                 2.5127
 Frc consts  --      3.2600                 2.3723                 1.9227
 IR Inten    --     27.5586                 2.8623                37.9601

                     49                     50                     51
                      A                      A                      A
 Frequencies --   1193.8861              1246.1990              1283.9910
 Red. masses --      1.4728                 1.2785                 1.1617
 Frc consts  --      1.2369                 1.1699                 1.1284
 IR Inten    --      3.2107                29.7166                13.6047

                     52                     53                     54
                      A                      A                      A
 Frequencies --   1299.6439              1311.0581              1351.0143
 Red. masses --      1.1623                 1.1038                 1.1651
 Frc consts  --      1.1567                 1.1178                 1.2529
 IR Inten    --     33.9184                36.8947                 8.3238

                     55                     56                     57
                      A                      A                      A
 Frequencies --   1358.3105              1380.6405              1393.3043
 Red. masses --      1.1905                 1.1768                 1.2375
 Frc consts  --      1.2942                 1.3216                 1.4154
 IR Inten    --     27.6524                17.0528                70.4277

                     58                     59                     60
                      A                      A                      A
 Frequencies --   1407.6012              1415.1054              1420.8648
 Red. masses --      1.3150                 1.2001                 1.2744
 Frc consts  --      1.5350                 1.4159                 1.5158
 IR Inten    --      8.7297                58.6464                 3.1261

                     61                     62                     63
                      A                      A                      A
 Frequencies --   1452.1673              1461.5643              1474.7824
 Red. masses --      1.6418                 1.4062                 1.4320
 Frc consts  --      2.0399                 1.7698                 1.8350
 IR Inten    --     21.0253               109.7695                38.5534

                     64                     65                     66
                      A                      A                      A
 Frequencies --   1520.0662              1535.1717              1740.6304
 Red. masses --      1.1962                 1.1666                 1.0785
 Frc consts  --      1.6285                 1.6199                 1.9253
 IR Inten    --     21.2360                15.2799                84.1140

                     67                     68                     69
                      A                      A                      A
 Frequencies --   1758.3270              1803.5796              2961.4346
 Red. masses --      1.0769                 8.5106                 1.0838
 Frc consts  --      1.9616                16.3110                 5.6000
 IR Inten    --     55.1562               216.5452                22.8205

                     70                     71                     72
                      A                      A                      A
 Frequencies --   2965.2948              2975.6228              2998.3117
 Red. masses --      1.0829                 1.0832                 1.0853
 Frc consts  --      5.6103                 5.6509                 5.7486
 IR Inten    --      5.3514                77.4410                75.2027

                     73                     74                     75
                      A                      A                      A
 Frequencies --   3041.0550              3047.2203              3127.2795
 Red. masses --      1.0855                 1.0669                 1.1009
 Frc consts  --      5.9145                 5.8367                 6.3437
 IR Inten    --     54.9903                37.5736                21.0308

                     76                     77                     78
                      A                      A                      A
 Frequencies --   3238.1774              3345.6043              3452.4322
 Red. masses --      1.0686                 1.0647                 1.0603
 Frc consts  --      6.6017                 7.0212                 7.4463
 IR Inten    --    797.7564               866.4258               906.7457

                     79                     80                     81
                      A                      A                      A
 Frequencies --   3604.9909              3674.7020              3688.1901
 Red. masses --      1.0662                 1.0648                 1.0649
 Frc consts  --      8.1636                 8.4719                 8.5345
 IR Inten    --    262.6006               109.0658                47.1318

                     82                     83                     84
                      A                      A                      A
 Frequencies --   3739.3136              3795.8920              3798.1197
 Red. masses --      1.0662                 1.0664                 1.0678
 Frc consts  --      8.7839                 9.0533                 9.0754
 IR Inten    --     24.8932                45.2981                63.5096

 - Thermochemistry -
 -------------------
 Temperature   298.150 Kelvin.  Pressure   1.00000 Atm.
 Atom     1 has atomic number  6 and mass  12.00000

 Molecular mass:   216.08452 amu.
 Principal axes and moments of inertia in atomic units:
                           1         2         3
     Eigenvalues --  2860.158893839.197706331.13858
           X            0.99962  -0.02750   0.00228
           Y            0.02751   0.99962  -0.00244
           Z           -0.00221   0.00250   0.99999
 This molecule is an asymmetric top.
 Rotational symmetry number  1.
 Warning -- assumption of classical behavior for rotation
           may cause significant error
 Rotational temperatures (Kelvin)      0.03028     0.02256     0.01368
 Rotational constants (GHZ):           0.63099     0.47008     0.28506
 Zero-point vibrational energy     646272.1 (Joules/Mol)
                                  154.46274 (Kcal/Mol)
 Warning -- explicit consideration of  31 degrees of freedom as
           vibrations may cause significant error
 Vibrational temperatures:     39.02    49.13    74.67    91.11   102.49
          (Kelvin)            148.32   182.82   232.88   242.90   286.88
                              322.74   351.74   365.08   376.60   405.37
                              435.50   482.53   501.46   516.83   539.41
                              573.05   582.77   603.28   616.83   640.76
                              649.92   707.88   727.96   784.47   801.66
                              851.57   940.22   962.14  1049.24  1189.25
                             1300.48  1391.15  1430.18  1448.10  1471.00
                             1493.21  1522.66  1569.83  1580.91  1601.75
                             1610.51  1613.40  1639.66  1717.73  1793.00
                             1847.37  1869.90  1886.32  1943.81  1954.30
                             1986.43  2004.65  2025.22  2036.02  2044.31
                             2089.34  2102.86  2121.88  2187.03  2208.77
                             2504.38  2529.84  2594.95  4260.84  4266.39
                             4281.25  4313.90  4375.39  4384.26  4499.45
                             4659.01  4813.57  4967.27  5186.77  5287.07
                             5306.48  5380.03  5461.44  5464.64

 Zero-point correction=                           0.246152 (Hartree/Particle)
 Thermal correction to Energy=                    0.264329
 Thermal correction to Enthalpy=                  0.265274
 Thermal correction to Gibbs Free Energy=         0.199607
 Sum of electronic and zero-point Energies=           -839.748945
 Sum of electronic and thermal Energies=              -839.730768
 Sum of electronic and thermal Enthalpies=            -839.729823
 Sum of electronic and thermal Free Energies=         -839.795490

                     E (Thermal)             CV                S
                      KCal/Mol        Cal/Mol-Kelvin    Cal/Mol-Kelvin
 Total                  165.869             65.927            138.206
 Electronic               0.000              0.000              0.000
 Translational            0.889              2.981             42.015
 Rotational               0.889              2.981             32.608
 Vibrational            164.092             59.966             63.584
 Vibration     1          0.593              1.984              6.029
 Vibration     2          0.594              1.983              5.573
 Vibration     3          0.596              1.977              4.744
 Vibration     4          0.597              1.972              4.351
 Vibration     5          0.598              1.968              4.119
 Vibration     6          0.605              1.947              3.395
 Vibration     7          0.611              1.926              2.990
 Vibration     8          0.622              1.889              2.528
 Vibration     9          0.625              1.881              2.449
 Vibration    10          0.638              1.841              2.139
 Vibration    11          0.649              1.804              1.924
 Vibration    12          0.660              1.772              1.770
 Vibration    13          0.665              1.756              1.704
 Vibration    14          0.669              1.743              1.650
 Vibration    15          0.681              1.707              1.523
 Vibration    16          0.694              1.669              1.402
 Vibration    17          0.716              1.605              1.234
 Vibration    18          0.726              1.578              1.173
 Vibration    19          0.734              1.556              1.126
 Vibration    20          0.746              1.524              1.060
 Vibration    21          0.765              1.474              0.969
 Vibration    22          0.770              1.459              0.944
 Vibration    23          0.782              1.428              0.894
 Vibration    24          0.790              1.408              0.863
 Vibration    25          0.805              1.371              0.810
 Vibration    26          0.810              1.357              0.791
 Vibration    27          0.848              1.268              0.678
 Vibration    28          0.861              1.237              0.643
 Vibration    29          0.900              1.150              0.554
 Vibration    30          0.913              1.124              0.529
 Vibration    31          0.949              1.049              0.464

 Normal termination of Gaussian 09 at Sun Jan 15 12:36:45 2017.
