 Gaussian 09, Revision E.01,
 Gaussian 09:  ES64L-G09RevE.01 30-Nov-2015

 -----------------------------------------
 # opt=(MaxCycle=1000) freq B3LYP/6-31G(d)
 -----------------------------------------

 --------------------------------------------------
 ./chairs/1/glo_2w_alpha_ircr_chair_B3LYP_631Gd.out
 --------------------------------------------------
 Symbolic Z-matrix:
 Charge =  0 Multiplicity = 1

 SCF Done:  E(RB3LYP) =  -839.994037577     A.U. after   14 cycles
 SCF Done:  E(RB3LYP) =  -839.994037432     A.U. after    7 cycles
 SCF Done:  E(RB3LYP) =  -839.994037489     A.U. after    7 cycles
 SCF Done:  E(RB3LYP) =  -839.994037607     A.U. after    7 cycles
 Optimization completed.
    -- Stationary point found.
 Normal termination of Gaussian 09 at Sun Jan 15 12:24:58 2017.

 --------------------------------------------------------------------
 #N Geom=AllCheck Guess=TCheck SCRF=Check GenChk RB3LYP/6-31G(d) Freq
 --------------------------------------------------------------------

 Structure from the checkpoint file:  "/scratch/10462970.yak.local/Gau-28084.chk"
 --------------------------------------------------
 ./chairs/1/glo_2w_alpha_ircr_chair_B3LYP_631Gd.out
 --------------------------------------------------
 Charge =  0 Multiplicity = 1

                         Standard orientation:
 ---------------------------------------------------------------------
 Center     Atomic      Atomic             Coordinates (Angstroms)
 Number     Number       Type             X           Y           Z
 ---------------------------------------------------------------------
      1          6           0        0.576947   -1.819602   -0.327227
      2          8           0       -0.656733    0.090169   -1.149338
      3          1           0       -3.428935    0.093852   -0.666596
      4          1           0       -2.876629   -3.177379    1.238391
      5          8           0       -2.573629   -2.258321    1.283980
      6          1           0       -3.090175   -1.342897   -0.159930
      7          8           0       -3.157371   -0.791775   -0.978010
      8          1           0       -1.589209   -0.285115   -1.165489
      9          6           0        1.820029   -0.984639   -0.640385
     10          6           0        1.915616    0.249639    0.264116
     11          6           0        0.946980    1.401920   -0.047130
     12          6           0       -0.533288    0.989811   -0.061786
     13          1           0        1.785000   -0.674775   -1.693886
     14          1           0        1.199662    1.814361   -1.029599
     15          1           0       -0.765104    0.479540    0.893706
     16          1           0        1.739600   -0.085199    1.300015
     17          8           0        2.923000   -1.851730   -0.402198
     18          8           0        3.253848    0.723841    0.124529
     19          8           0        1.224231    2.464027    0.880462
     20          1           0        3.277077    1.594269    0.557778
     21          1           0        3.695540   -1.265307   -0.316866
     22          1           0        1.009220    2.135668    1.770777
     23          6           0       -1.480745    2.188870   -0.197940
     24          8           0       -2.850744    1.842958    0.062733
     25          1           0       -1.455357    2.551672   -1.229062
     26          1           0       -1.160339    3.002025    0.464040
     27          1           0       -2.943498    1.709885    1.019545
     28          1           0        0.146448   -2.382023   -1.173512
     29          8           0        0.159887   -1.971342    0.812066
     30          1           0       -1.596447   -2.307188    1.179003
 ---------------------------------------------------------------------

 SCF Done:  E(RB3LYP) =  -839.994037607     A.U. after    1 cycles

 The electronic state is 1-A.
 Alpha  occ. eigenvalues --  -19.17811 -19.17502 -19.16309 -19.15962 -19.15339
 Alpha  occ. eigenvalues --  -19.14589 -19.14477 -19.13130 -10.29123 -10.25268
 Alpha  occ. eigenvalues --  -10.24904 -10.24695 -10.24445 -10.24404  -1.06346
 Alpha  occ. eigenvalues --   -1.05524  -1.04441  -1.03320  -1.01754  -1.01159
 Alpha  occ. eigenvalues --   -1.00857  -0.98503  -0.78691  -0.75236  -0.69984
 Alpha  occ. eigenvalues --   -0.64991  -0.62041  -0.57039  -0.54642  -0.54215
 Alpha  occ. eigenvalues --   -0.53856  -0.52237  -0.51162  -0.50957  -0.49604
 Alpha  occ. eigenvalues --   -0.47606  -0.46821  -0.46092  -0.43952  -0.43549
 Alpha  occ. eigenvalues --   -0.42277  -0.40496  -0.40023  -0.38954  -0.37950
 Alpha  occ. eigenvalues --   -0.36792  -0.36491  -0.35803  -0.34534  -0.33715
 Alpha  occ. eigenvalues --   -0.31916  -0.31429  -0.30814  -0.29014  -0.28123
 Alpha  occ. eigenvalues --   -0.26903  -0.26633  -0.26163
 Alpha virt. eigenvalues --   -0.03113   0.04178   0.04520   0.06904   0.09075
 Alpha virt. eigenvalues --    0.10713   0.11565   0.12624   0.13154   0.14450
 Alpha virt. eigenvalues --    0.14835   0.14965   0.15923   0.16993   0.17934

 Mulliken charges:
               1
     1  C    0.285289
     2  O   -0.676702
     3  H    0.414285
     4  H    0.399729
     5  O   -0.819188
     6  H    0.423606
     7  O   -0.845192
     8  H    0.440758
     9  C    0.111742
    10  C    0.101591
    11  C    0.099115
    12  C    0.083925
    13  H    0.139969
    14  H    0.162719
    15  H    0.108659
    16  H    0.129219
    17  O   -0.650550
    18  O   -0.665011
    19  O   -0.633359
    20  H    0.410046
    21  H    0.421431
    22  H    0.392531
    23  C   -0.058463
    24  O   -0.622985
    25  H    0.169814
    26  H    0.148045
    27  H    0.400387
    28  H    0.139704
    29  O   -0.446462
    30  H    0.435350
 Sum of Mulliken charges =  -0.00000

 Dipole moment (field-independent basis, Debye):
    X=             -0.3005    Y=              1.3018    Z=              2.6435  Tot=              2.9620
 Quadrupole moment (field-independent basis, Debye-Ang):
   XX=            -88.9673   YY=            -79.8393   ZZ=            -82.6728
   XY=              6.2403   XZ=             -5.5111   YZ=              3.8729

  Exact polarizability: 107.912   1.513 100.137  -1.924   0.864  82.727
 Approx polarizability: 134.917   2.995 132.125  -4.362  -1.993 134.607

                      1                      2                      3
                      A                      A                      A
 Frequencies --     22.5719                51.8382                74.5257
 Red. masses --      4.9307                 5.8560                 6.4411
 Frc consts  --      0.0015                 0.0093                 0.0211
 IR Inten    --      5.5162                 3.2160                 0.1472

                      4                      5                      6
                      A                      A                      A
 Frequencies --     83.3906               111.7076               125.0917
 Red. masses --      7.1107                 5.8373                 6.0803
 Frc consts  --      0.0291                 0.0429                 0.0561
 IR Inten    --      0.4329                 9.9322                 1.8240

                      7                      8                      9
                      A                      A                      A
 Frequencies --    144.0328               159.7812               172.7083
 Red. masses --      4.8660                 4.2980                 7.2733
 Frc consts  --      0.0595                 0.0647                 0.1278
 IR Inten    --      0.5901                12.6575                 9.0816

                     10                     11                     12
                      A                      A                      A
 Frequencies --    196.5924               222.9009               248.0446
 Red. masses --      3.6754                 4.6401                 3.4487
 Frc consts  --      0.0837                 0.1358                 0.1250
 IR Inten    --      8.0424                19.5595                 8.3462

                     13                     14                     15
                      A                      A                      A
 Frequencies --    261.1551               266.1380               275.3147
 Red. masses --      3.1463                 2.7424                 2.2804
 Frc consts  --      0.1264                 0.1144                 0.1018
 IR Inten    --      8.6578                49.4172                98.1576

                     16                     17                     18
                      A                      A                      A
 Frequencies --    291.4577               306.3020               332.7838
 Red. masses --      2.7870                 2.9274                 2.2044
 Frc consts  --      0.1395                 0.1618                 0.1438
 IR Inten    --     12.6157                17.3319                45.2875

                     19                     20                     21
                      A                      A                      A
 Frequencies --    359.2590               362.0748               366.2266
 Red. masses --      2.1845                 1.6730                 2.0709
 Frc consts  --      0.1661                 0.1292                 0.1636
 IR Inten    --     51.6367                65.5343                63.7649

                     22                     23                     24
                      A                      A                      A
 Frequencies --    388.0099               411.3583               421.1197
 Red. masses --      4.6326                 1.2600                 1.1979
 Frc consts  --      0.4109                 0.1256                 0.1252
 IR Inten    --     10.2504                36.1861                82.4731

                     25                     26                     27
                      A                      A                      A
 Frequencies --    423.1200               487.9772               504.6286
 Red. masses --      3.0231                 2.8372                 1.1364
 Frc consts  --      0.3189                 0.3981                 0.1705
 IR Inten    --     13.2623                35.9586               172.0086

                     28                     29                     30
                      A                      A                      A
 Frequencies --    537.0843               567.3374               576.4201
 Red. masses --      5.4727                 1.5383                 1.6400
 Frc consts  --      0.9301                 0.2917                 0.3210
 IR Inten    --     17.5945                43.9999                44.6728

                     31                     32                     33
                      A                      A                      A
 Frequencies --    617.5693               664.1292               704.9613
 Red. masses --      2.6593                 1.1398                 1.1784
 Frc consts  --      0.5976                 0.2962                 0.3450
 IR Inten    --     64.8827                94.3157               140.9726

                     34                     35                     36
                      A                      A                      A
 Frequencies --    741.0527               862.6219               893.8848
 Red. masses --      3.1359                 1.0647                 2.3696
 Frc consts  --      1.0146                 0.4668                 1.1155
 IR Inten    --     87.0912               265.3451                25.9735

                     37                     38                     39
                      A                      A                      A
 Frequencies --    929.4033               972.6083               991.2161
 Red. masses --      2.7094                 1.9687                 4.1008
 Frc consts  --      1.3789                 1.0973                 2.3738
 IR Inten    --     12.2663                83.7272               137.1087

                     40                     41                     42
                      A                      A                      A
 Frequencies --   1010.1249              1063.1054              1068.2339
 Red. masses --      3.2618                 2.6949                 4.1638
 Frc consts  --      1.9609                 1.7945                 2.7995
 IR Inten    --     85.6185                 9.2403                 9.0088

                     43                     44                     45
                      A                      A                      A
 Frequencies --   1083.0743              1103.0025              1107.7085
 Red. masses --      2.1013                 2.0536                 3.9792
 Frc consts  --      1.4523                 1.4720                 2.8767
 IR Inten    --     48.5801                79.4777                98.5589

                     46                     47                     48
                      A                      A                      A
 Frequencies --   1114.4465              1139.1792              1144.1146
 Red. masses --      1.7401                 2.7681                 2.9962
 Frc consts  --      1.2733                 2.1165                 2.3108
 IR Inten    --     34.4319                11.7787                10.6669

                     49                     50                     51
                      A                      A                      A
 Frequencies --   1209.6661              1224.9829              1259.8655
 Red. masses --      1.2543                 1.2712                 1.2245
 Frc consts  --      1.0814                 1.1239                 1.1452
 IR Inten    --     22.8622                26.4678                 7.0548

                     52                     53                     54
                      A                      A                      A
 Frequencies --   1279.0624              1289.9044              1359.1282
 Red. masses --      1.1401                 1.1802                 1.2110
 Frc consts  --      1.0990                 1.1570                 1.3180
 IR Inten    --     33.8646                46.9662                24.4240

                     55                     56                     57
                      A                      A                      A
 Frequencies --   1372.1887              1380.0942              1406.7623
 Red. masses --      1.2122                 1.3001                 1.2863
 Frc consts  --      1.3447                 1.4590                 1.4998
 IR Inten    --      9.4260                49.3980                 3.9443

                     58                     59                     60
                      A                      A                      A
 Frequencies --   1417.7289              1420.8070              1423.3905
 Red. masses --      1.2804                 1.2222                 1.2491
 Frc consts  --      1.5162                 1.4536                 1.4910
 IR Inten    --     16.0009                44.2046                35.4646

                     61                     62                     63
                      A                      A                      A
 Frequencies --   1434.4572              1445.4325              1462.8419
 Red. masses --      1.2484                 1.4665                 1.6572
 Frc consts  --      1.5135                 1.8051                 2.0894
 IR Inten    --     18.7536                38.6651                24.1245

                     64                     65                     66
                      A                      A                      A
 Frequencies --   1522.2600              1533.8499              1725.6811
 Red. masses --      1.0936                 1.2339                 1.0849
 Frc consts  --      1.4930                 1.7104                 1.9036
 IR Inten    --      1.0967                38.6072                77.8666

                     67                     68                     69
                      A                      A                      A
 Frequencies --   1752.9223              1775.7172              2937.5535
 Red. masses --      1.0707                 8.1573                 1.0812
 Frc consts  --      1.9385                15.1546                 5.4971
 IR Inten    --     53.2369               149.4342                30.5133

                     70                     71                     72
                      A                      A                      A
 Frequencies --   2994.2778              3012.0996              3045.2910
 Red. masses --      1.0822                 1.0874                 1.0863
 Frc consts  --      5.7169                 5.8125                 5.9358
 IR Inten    --     26.9172                46.6465                60.7980

                     73                     74                     75
                      A                      A                      A
 Frequencies --   3065.6058              3096.2952              3105.0523
 Red. masses --      1.0627                 1.0860                 1.0717
 Frc consts  --      5.8842                 6.1345                 6.0877
 IR Inten    --     32.6865                27.0246              1013.6039

                     76                     77                     78
                      A                      A                      A
 Frequencies --   3134.9843              3436.0764              3528.9192
 Red. masses --      1.1038                 1.0610                 1.0576
 Frc consts  --      6.3915                 7.3809                 7.7599
 IR Inten    --     20.1139               471.0562               606.5372

                     79                     80                     81
                      A                      A                      A
 Frequencies --   3661.8473              3699.9709              3700.4306
 Red. masses --      1.0689                 1.0657                 1.0651
 Frc consts  --      8.4447                 8.5960                 8.5933
 IR Inten    --    248.4982                16.7516                61.3800

                     82                     83                     84
                      A                      A                      A
 Frequencies --   3714.6740              3738.5946              3803.2924
 Red. masses --      1.0654                 1.0663                 1.0696
 Frc consts  --      8.6615                 8.7808                 9.1155
 IR Inten    --     39.6425                21.3057                77.9549

 - Thermochemistry -
 -------------------
 Temperature   298.150 Kelvin.  Pressure   1.00000 Atm.
 Atom     1 has atomic number  6 and mass  12.00000

 Molecular mass:   216.08452 amu.
 Principal axes and moments of inertia in atomic units:
                           1         2         3
     Eigenvalues --  2439.393753775.458795391.95389
           X            0.99979   0.02031  -0.00357
           Y           -0.02030   0.99979   0.00278
           Z            0.00363  -0.00270   0.99999
 This molecule is an asymmetric top.
 Rotational symmetry number  1.
 Warning -- assumption of classical behavior for rotation
           may cause significant error
 Rotational temperatures (Kelvin)      0.03551     0.02294     0.01606
 Rotational constants (GHZ):           0.73983     0.47802     0.33471
 Zero-point vibrational energy     647975.8 (Joules/Mol)
                                  154.86994 (Kcal/Mol)
 Warning -- explicit consideration of  31 degrees of freedom as
           vibrations may cause significant error
 Vibrational temperatures:     32.48    74.58   107.23   119.98   160.72
          (Kelvin)            179.98   207.23   229.89   248.49   282.85
                              320.70   356.88   375.74   382.91   396.12
                              419.34   440.70   478.80   516.89   520.94
                              526.92   558.26   591.85   605.90   608.77
                              702.09   726.05   772.74   816.27   829.34
                              888.54   955.53  1014.28  1066.21  1241.12
                             1286.10  1337.20  1399.36  1426.14  1453.34
                             1529.57  1536.95  1558.30  1586.97  1593.74
                             1603.44  1639.02  1646.12  1740.44  1762.47
                             1812.66  1840.28  1855.88  1955.48  1974.27
                             1985.65  2024.01  2039.79  2044.22  2047.94
                             2063.86  2079.65  2104.70  2190.19  2206.87
                             2482.87  2522.06  2554.86  4226.48  4308.09
                             4333.73  4381.49  4410.72  4454.87  4467.47
                             4510.54  4943.74  5077.32  5268.57  5323.43
                             5324.09  5344.58  5379.00  5472.08

 Zero-point correction=                           0.246801 (Hartree/Particle)
 Thermal correction to Energy=                    0.264749
 Thermal correction to Enthalpy=                  0.265694
 Thermal correction to Gibbs Free Energy=         0.201610
 Sum of electronic and zero-point Energies=           -839.747237
 Sum of electronic and thermal Energies=              -839.729288
 Sum of electronic and thermal Enthalpies=            -839.728344
 Sum of electronic and thermal Free Energies=         -839.792428

                     E (Thermal)             CV                S
                      KCal/Mol        Cal/Mol-Kelvin    Cal/Mol-Kelvin
 Total                  166.133             65.769            134.876
 Electronic               0.000              0.000              0.000
 Translational            0.889              2.981             42.015
 Rotational               0.889              2.981             32.274
 Vibrational            164.355             59.807             60.588
 Vibration     1          0.593              1.985              6.394
 Vibration     2          0.596              1.977              4.746
 Vibration     3          0.599              1.966              4.030
 Vibration     4          0.600              1.961              3.809
 Vibration     5          0.607              1.940              3.239
 Vibration     6          0.610              1.928              3.020
 Vibration     7          0.616              1.909              2.750
 Vibration     8          0.622              1.892              2.552
 Vibration     9          0.626              1.876              2.406
 Vibration    10          0.636              1.845              2.165
 Vibration    11          0.649              1.806              1.935
 Vibration    12          0.662              1.766              1.744
 Vibration    13          0.669              1.744              1.654
 Vibration    14          0.672              1.735              1.621
 Vibration    15          0.677              1.719              1.563
 Vibration    16          0.687              1.690              1.465
 Vibration    17          0.697              1.662              1.382
 Vibration    18          0.715              1.610              1.247
 Vibration    19          0.734              1.556              1.125
 Vibration    20          0.736              1.550              1.113
 Vibration    21          0.739              1.542              1.096
 Vibration    22          0.756              1.496              1.008
 Vibration    23          0.775              1.446              0.922
 Vibration    24          0.784              1.424              0.888
 Vibration    25          0.785              1.420              0.881
 Vibration    26          0.844              1.277              0.689
 Vibration    27          0.860              1.240              0.647
 Vibration    28          0.892              1.168              0.572
 Vibration    29          0.923              1.102              0.509
 Vibration    30          0.933              1.082              0.492
 Vibration    31          0.977              0.995              0.420

 Normal termination of Gaussian 09 at Sun Jan 15 12:42:38 2017.
