 Gaussian 09, Revision E.01,
 Gaussian 09:  ES64L-G09RevE.01 30-Nov-2015

 -----------------------------------------
 # opt=(MaxCycle=1000) freq B3LYP/6-31G(d)
 -----------------------------------------

 -------------------------------------------------
 ./chairs/1/glo_1w_beta_ircf_chair_B3LYP_631Gd.out
 -------------------------------------------------
 Symbolic Z-matrix:
 Charge =  0 Multiplicity = 1

 SCF Done:  E(RB3LYP) =  -839.990906467     A.U. after   14 cycles
 Optimization completed.
    -- Stationary point found.
 Normal termination of Gaussian 09 at Sun Jan 15 12:19:52 2017.

 --------------------------------------------------------------------
 #N Geom=AllCheck Guess=TCheck SCRF=Check GenChk RB3LYP/6-31G(d) Freq
 --------------------------------------------------------------------

 Structure from the checkpoint file:  "/scratch/10462966.yak.local/Gau-8410.chk"
 -------------------------------------------------
 ./chairs/1/glo_1w_beta_ircf_chair_B3LYP_631Gd.out
 -------------------------------------------------
 Charge =  0 Multiplicity = 1

                         Standard orientation:
 ---------------------------------------------------------------------
 Center     Atomic      Atomic             Coordinates (Angstroms)
 Number     Number       Type             X           Y           Z
 ---------------------------------------------------------------------
      1          6           0        2.310023   -0.619200   -0.865990
      2          8           0        0.784249    1.501836   -0.936783
      3          1           0        2.417460    1.597677    2.062152
      4          8           0        3.314013    0.032394   -0.648057
      5          1           0        3.086150    1.300156    0.700507
      6          8           0        2.525482    1.958709    1.169594
      7          1           0        1.275768    1.791140   -0.130402
      8          6           0        1.407780   -1.185908    0.225423
      9          6           0       -0.122011   -1.145881   -0.057787
     10          6           0       -0.829870    0.164730    0.355490
     11          6           0       -0.582383    1.331119   -0.624465
     12          6           0       -1.146271    2.668479   -0.124002
     13          8           0       -2.564361    2.544959    0.067937
     14          8           0        1.831879   -2.537769    0.276326
     15          8           0       -0.639590   -2.233341    0.698065
     16          8           0       -2.238885   -0.103325    0.414694
     17          1           0        2.077571   -0.976761   -1.886899
     18          1           0        1.625787   -0.670103    1.173523
     19          1           0        1.020836   -3.024157    0.537460
     20          1           0       -1.484062   -2.526723    0.277162
     21          1           0       -2.684339    0.768523    0.442623
     22          1           0       -0.478285    0.441818    1.363903
     23          1           0       -1.086280    1.074230   -1.564616
     24          1           0       -0.919392    3.441106   -0.869162
     25          1           0       -0.647958    2.940757    0.819010
     26          1           0       -2.888221    3.327550    0.538077
     27          8           0       -3.078891   -2.538606   -0.497116
     28          1           0       -3.686875   -2.872870    0.180399
     29          1           0       -0.294715   -1.319226   -1.132311
     30          1           0       -3.028215   -1.572006   -0.320719
 ---------------------------------------------------------------------

 SCF Done:  E(RB3LYP) =  -839.990906467     A.U. after    1 cycles

 The electronic state is 1-A.
 Alpha  occ. eigenvalues --  -19.18824 -19.16066 -19.15845 -19.15553 -19.15372
 Alpha  occ. eigenvalues --  -19.14976 -19.14503 -19.13836 -10.28199 -10.25534
 Alpha  occ. eigenvalues --  -10.24978 -10.24942 -10.24922 -10.24351  -1.06071
 Alpha  occ. eigenvalues --   -1.05464  -1.04270  -1.02942  -1.02303  -1.01222
 Alpha  occ. eigenvalues --   -1.01016  -0.99567  -0.78183  -0.75290  -0.69796
 Alpha  occ. eigenvalues --   -0.63979  -0.61123  -0.58540  -0.56088  -0.54884
 Alpha  occ. eigenvalues --   -0.53633  -0.52991  -0.51788  -0.49945  -0.48858
 Alpha  occ. eigenvalues --   -0.46815  -0.46663  -0.45534  -0.44592  -0.43463
 Alpha  occ. eigenvalues --   -0.42404  -0.40803  -0.39945  -0.39637  -0.38560
 Alpha  occ. eigenvalues --   -0.38144  -0.35844  -0.35241  -0.34106  -0.34009
 Alpha  occ. eigenvalues --   -0.31322  -0.30841  -0.30659  -0.30423  -0.27401
 Alpha  occ. eigenvalues --   -0.27274  -0.26788  -0.25415
 Alpha virt. eigenvalues --   -0.02499   0.03258   0.04535   0.06701   0.09267
 Alpha virt. eigenvalues --    0.11319   0.11394   0.13017   0.13682   0.13990
 Alpha virt. eigenvalues --    0.15177   0.16169   0.17025   0.17740   0.19026

 Mulliken charges:
               1
     1  C    0.310550
     2  O   -0.660658
     3  H    0.398712
     4  O   -0.437921
     5  H    0.434726
     6  O   -0.809450
     7  H    0.438993
     8  C    0.099851
     9  C    0.081393
    10  C    0.139647
    11  C    0.092214
    12  C   -0.069291
    13  O   -0.639481
    14  O   -0.653090
    15  O   -0.691848
    16  O   -0.693421
    17  H    0.131088
    18  H    0.099229
    19  H    0.423247
    20  H    0.433271
    21  H    0.436491
    22  H    0.109743
    23  H    0.152100
    24  H    0.161682
    25  H    0.136916
    26  H    0.413389
    27  O   -0.800631
    28  H    0.397738
    29  H    0.134687
    30  H    0.430126
 Sum of Mulliken charges =  -0.00000

 Dipole moment (field-independent basis, Debye):
    X=             -4.7748    Y=              2.9323    Z=              2.8400  Tot=              6.2819
 Quadrupole moment (field-independent basis, Debye-Ang):
   XX=            -86.3250   YY=            -79.8425   ZZ=            -81.3933
   XY=             -5.0426   XZ=             -1.4629   YZ=              3.7265

  Exact polarizability: 108.894   2.602 104.433  -0.190   2.221  79.537
 Approx polarizability: 145.231   9.750 136.014   1.382   3.586 119.848

                      1                      2                      3
                      A                      A                      A
 Frequencies --     34.2052                43.4550                54.0095
 Red. masses --      6.0574                 5.6606                 6.1986
 Frc consts  --      0.0042                 0.0063                 0.0107
 IR Inten    --      0.1900                 0.4141                 2.1193

                      4                      5                      6
                      A                      A                      A
 Frequencies --     76.9335                92.8032               132.2100
 Red. masses --      6.0612                 6.4345                 6.8727
 Frc consts  --      0.0211                 0.0327                 0.0708
 IR Inten    --      2.5069                 2.3474                 0.5801

                      7                      8                      9
                      A                      A                      A
 Frequencies --    148.3600               160.5678               180.1868
 Red. masses --      3.1102                 6.4096                 3.8897
 Frc consts  --      0.0403                 0.0974                 0.0744
 IR Inten    --      7.6092                 3.9400                20.5493

                     10                     11                     12
                      A                      A                      A
 Frequencies --    209.8991               217.7664               232.9181
 Red. masses --      6.6274                 5.3780                 4.8604
 Frc consts  --      0.1720                 0.1503                 0.1554
 IR Inten    --      4.1511                11.5687                 2.6011

                     13                     14                     15
                      A                      A                      A
 Frequencies --    245.0109               260.4563               271.7774
 Red. masses --      4.4803                 5.4280                 1.1759
 Frc consts  --      0.1585                 0.2169                 0.0512
 IR Inten    --      9.7266                18.6650                80.9513

                     16                     17                     18
                      A                      A                      A
 Frequencies --    281.6279               293.1580               325.9715
 Red. masses --      2.3700                 1.2159                 1.2164
 Frc consts  --      0.1108                 0.0616                 0.0762
 IR Inten    --      3.9125               192.1941                51.2494

                     19                     20                     21
                      A                      A                      A
 Frequencies --    356.1448               378.7492               388.8287
 Red. masses --      2.8557                 2.4414                 1.6644
 Frc consts  --      0.2134                 0.2063                 0.1483
 IR Inten    --      2.5599                37.8510                65.4821

                     22                     23                     24
                      A                      A                      A
 Frequencies --    399.7844               411.4594               430.7132
 Red. masses --      3.4021                 3.7589                 1.3940
 Frc consts  --      0.3204                 0.3749                 0.1524
 IR Inten    --     45.5564                20.2543                56.1471

                     25                     26                     27
                      A                      A                      A
 Frequencies --    447.8080               453.6181               489.2052
 Red. masses --      4.9774                 4.8927                 4.3464
 Frc consts  --      0.5881                 0.5932                 0.6129
 IR Inten    --     20.4634                15.7411                16.1621

                     28                     29                     30
                      A                      A                      A
 Frequencies --    545.2569               575.3752               582.8981
 Red. masses --      3.1028                 1.1288                 3.6102
 Frc consts  --      0.5435                 0.2202                 0.7227
 IR Inten    --     21.8162                67.6391                48.6251

                     31                     32                     33
                      A                      A                      A
 Frequencies --    621.1989               666.5822               683.8194
 Red. masses --      1.1539                 2.8360                 1.0696
 Frc consts  --      0.2623                 0.7424                 0.2947
 IR Inten    --    128.1595                29.5274               126.0451

                     34                     35                     36
                      A                      A                      A
 Frequencies --    688.9460               865.3365               909.3832
 Red. masses --      1.0902                 1.0863                 1.8954
 Frc consts  --      0.3049                 0.4793                 0.9235
 IR Inten    --    159.9260               318.0787                 1.5982

                     37                     38                     39
                      A                      A                      A
 Frequencies --    930.1958               964.8498               995.8331
 Red. masses --      1.0975                 2.1996                 3.2241
 Frc consts  --      0.5595                 1.2065                 1.8838
 IR Inten    --    205.8443                10.2326                 9.4979

                     40                     41                     42
                      A                      A                      A
 Frequencies --   1016.1427              1053.4759              1059.7691
 Red. masses --      3.0837                 3.1313                 5.0867
 Frc consts  --      1.8760                 2.0475                 3.3660
 IR Inten    --     81.9079                17.4237                52.5663

                     43                     44                     45
                      A                      A                      A
 Frequencies --   1090.3155              1104.0059              1106.0494
 Red. masses --      4.5946                 3.3424                 4.0115
 Frc consts  --      3.2181                 2.4002                 2.8914
 IR Inten    --     89.4638                93.8209                58.3096

                     46                     47                     48
                      A                      A                      A
 Frequencies --   1119.4862              1124.2701              1161.6681
 Red. masses --      3.9509                 3.8115                 3.0279
 Frc consts  --      2.9173                 2.8385                 2.4075
 IR Inten    --     73.0026                 8.6284                13.3388

                     49                     50                     51
                      A                      A                      A
 Frequencies --   1227.7748              1247.0662              1264.7047
 Red. masses --      1.2139                 1.1967                 1.1841
 Frc consts  --      1.0782                 1.0965                 1.1158
 IR Inten    --     19.5199                 8.1983                17.9835

                     52                     53                     54
                      A                      A                      A
 Frequencies --   1292.9625              1318.8818              1341.6214
 Red. masses --      1.1771                 1.1729                 1.1424
 Frc consts  --      1.1594                 1.2021                 1.2116
 IR Inten    --     30.0872                 8.8702                 4.5003

                     55                     56                     57
                      A                      A                      A
 Frequencies --   1366.0393              1368.9511              1391.0292
 Red. masses --      1.2539                 1.1880                 1.1752
 Frc consts  --      1.3786                 1.3118                 1.3398
 IR Inten    --      6.3124                19.7727                69.9130

                     58                     59                     60
                      A                      A                      A
 Frequencies --   1413.3061              1417.4059              1457.0302
 Red. masses --      1.2970                 1.2221                 1.4018
 Frc consts  --      1.5264                 1.4465                 1.7533
 IR Inten    --      4.4032                17.3140                 9.4657

                     61                     62                     63
                      A                      A                      A
 Frequencies --   1462.1656              1495.4755              1496.0543
 Red. masses --      1.4575                 1.2702                 1.2338
 Frc consts  --      1.8359                 1.6737                 1.6270
 IR Inten    --     60.2598               111.0566                 4.4734

                     64                     65                     66
                      A                      A                      A
 Frequencies --   1519.6500              1546.5545              1726.4791
 Red. masses --      1.2144                 1.0939                 1.0847
 Frc consts  --      1.6523                 1.5416                 1.9049
 IR Inten    --    102.6852                 5.5902                47.8088

                     67                     68                     69
                      A                      A                      A
 Frequencies --   1731.3667              1803.5052              2980.0737
 Red. masses --      1.0737                 8.8772                 1.0823
 Frc consts  --      1.8963                17.0122                 5.6633
 IR Inten    --     57.6926               191.1516                18.7871

                     70                     71                     72
                      A                      A                      A
 Frequencies --   2989.1222              3001.2130              3015.1878
 Red. masses --      1.0871                 1.0826                 1.0778
 Frc consts  --      5.7230                 5.7455                 5.7731
 IR Inten    --     28.7862                 9.0444                47.1015

                     73                     74                     75
                      A                      A                      A
 Frequencies --   3016.4839              3064.2642              3082.3678
 Red. masses --      1.0713                 1.0863                 1.1016
 Frc consts  --      5.7431                 6.0098                 6.1665
 IR Inten    --    115.7463                32.2605                59.0366

                     76                     77                     78
                      A                      A                      A
 Frequencies --   3399.9703              3423.7363              3534.4114
 Red. masses --      1.0681                 1.0691                 1.0585
 Frc consts  --      7.2748                 7.3839                 7.7903
 IR Inten    --    504.0076               399.5899               397.1396

                     79                     80                     81
                      A                      A                      A
 Frequencies --   3537.9156              3563.5176              3582.2735
 Red. masses --      1.0593                 1.0633                 1.0649
 Frc consts  --      7.8122                 7.9555                 8.0513
 IR Inten    --    756.6778               109.0065               227.1412

                     82                     83                     84
                      A                      A                      A
 Frequencies --   3766.9725              3791.7705              3801.7242
 Red. masses --      1.0668                 1.0697                 1.0698
 Frc consts  --      8.9187                 9.0618                 9.1102
 IR Inten    --     30.8843                72.2649                48.9170

 - Thermochemistry -
 -------------------
 Temperature   298.150 Kelvin.  Pressure   1.00000 Atm.
 Atom     1 has atomic number  6 and mass  12.00000

 Molecular mass:   216.08452 amu.
 Principal axes and moments of inertia in atomic units:
                           1         2         3
     Eigenvalues --  2836.485223434.921015612.79368
           X            0.99951   0.03090   0.00549
           Y           -0.03094   0.99949   0.00768
           Z           -0.00525  -0.00784   0.99996
 This molecule is an asymmetric top.
 Rotational symmetry number  1.
 Warning -- assumption of classical behavior for rotation
           may cause significant error
 Rotational temperatures (Kelvin)      0.03054     0.02522     0.01543
 Rotational constants (GHZ):           0.63626     0.52541     0.32154
 Zero-point vibrational energy     647906.5 (Joules/Mol)
                                  154.85338 (Kcal/Mol)
 Warning -- explicit consideration of  30 degrees of freedom as
           vibrations may cause significant error
 Vibrational temperatures:     49.21    62.52    77.71   110.69   133.52
          (Kelvin)            190.22   213.46   231.02   259.25   302.00
                              313.32   335.12   352.52   374.74   391.03
                              405.20   421.79   469.00   512.41   544.93
                              559.44   575.20   592.00   619.70   644.30
                              652.65   703.86   784.50   827.84   838.66
                              893.77   959.06   983.86   991.24  1245.02
                             1308.40  1338.34  1388.20  1432.78  1462.00
                             1515.71  1524.77  1568.72  1588.42  1591.36
                             1610.69  1617.57  1671.38  1766.49  1794.25
                             1819.63  1860.28  1897.57  1930.29  1965.42
                             1969.61  2001.38  2033.43  2039.33  2096.34
                             2103.73  2151.65  2152.49  2186.43  2225.14
                             2484.02  2491.05  2594.84  4287.66  4300.67
                             4318.07  4338.18  4340.04  4408.79  4434.83
                             4891.79  4925.99  5085.22  5090.27  5127.10
                             5154.09  5419.83  5455.51  5469.83

 Zero-point correction=                           0.246775 (Hartree/Particle)
 Thermal correction to Energy=                    0.264814
 Thermal correction to Enthalpy=                  0.265758
 Thermal correction to Gibbs Free Energy=         0.201326
 Sum of electronic and zero-point Energies=           -839.744132
 Sum of electronic and thermal Energies=              -839.726093
 Sum of electronic and thermal Enthalpies=            -839.725148
 Sum of electronic and thermal Free Energies=         -839.789580

                     E (Thermal)             CV                S
                      KCal/Mol        Cal/Mol-Kelvin    Cal/Mol-Kelvin
 Total                  166.173             65.806            135.608
 Electronic               0.000              0.000              0.000
 Translational            0.889              2.981             42.015
 Rotational               0.889              2.981             32.370
 Vibrational            164.396             59.844             61.223
 Vibration     1          0.594              1.983              5.569
 Vibration     2          0.595              1.980              5.095
 Vibration     3          0.596              1.976              4.665
 Vibration     4          0.599              1.965              3.968
 Vibration     5          0.602              1.954              3.600
 Vibration     6          0.612              1.921              2.914
 Vibration     7          0.618              1.904              2.693
 Vibration     8          0.622              1.891              2.543
 Vibration     9          0.629              1.867              2.326
 Vibration    10          0.642              1.826              2.045
 Vibration    11          0.646              1.814              1.978
 Vibration    12          0.654              1.791              1.856
 Vibration    13          0.660              1.771              1.766
 Vibration    14          0.669              1.745              1.659
 Vibration    15          0.675              1.725              1.585
 Vibration    16          0.681              1.708              1.524
 Vibration    17          0.688              1.686              1.456
 Vibration    18          0.710              1.624              1.280
 Vibration    19          0.732              1.563              1.139
 Vibration    20          0.749              1.515              1.044
 Vibration    21          0.757              1.494              1.005
 Vibration    22          0.766              1.471              0.963
 Vibration    23          0.775              1.445              0.921
 Vibration    24          0.792              1.403              0.856
 Vibration    25          0.807              1.366              0.802
 Vibration    26          0.812              1.353              0.785
 Vibration    27          0.845              1.274              0.686
 Vibration    28          0.900              1.150              0.554
 Vibration    29          0.932              1.085              0.494
 Vibration    30          0.940              1.068              0.480

 Normal termination of Gaussian 09 at Sun Jan 15 12:36:33 2017.
