 Gaussian 09, Revision E.01,
 Gaussian 09:  ES64L-G09RevE.01 30-Nov-2015

 -----------------------------------------
 # opt=(MaxCycle=1000) freq B3LYP/6-31G(d)
 -----------------------------------------

 --------------------------------------------------
 ./chairs/1/glo_1w_alpha_ircr_chair_B3LYP_631Gd.out
 --------------------------------------------------
 Symbolic Z-matrix:
 Charge =  0 Multiplicity = 1

 SCF Done:  E(RB3LYP) =  -840.003621040     A.U. after   13 cycles
 Optimization completed.
    -- Stationary point found.
 Normal termination of Gaussian 09 at Sun Jan 15 12:30:51 2017.

 --------------------------------------------------------------------
 #N Geom=AllCheck Guess=TCheck SCRF=Check GenChk RB3LYP/6-31G(d) Freq
 --------------------------------------------------------------------

 Structure from the checkpoint file:  "/scratch/10462973.yak.local/Gau-21024.chk"
 --------------------------------------------------
 ./chairs/1/glo_1w_alpha_ircr_chair_B3LYP_631Gd.out
 --------------------------------------------------
 Charge =  0 Multiplicity = 1

                         Standard orientation:
 ---------------------------------------------------------------------
 Center     Atomic      Atomic             Coordinates (Angstroms)
 Number     Number       Type             X           Y           Z
 ---------------------------------------------------------------------
      1          6           0       -1.414835   -1.265367   -0.239640
      2          8           0       -1.551248    0.097924   -0.722630
      3          1           0       -4.744985   -0.385295    0.250713
      4          8           0       -3.994569    0.015418    0.714974
      5          1           0       -3.390947    0.322633    0.009199
      6          6           0       -0.017616   -1.753662   -0.610413
      7          6           0        1.052444   -0.865872    0.033450
      8          6           0        0.807936    0.599324   -0.352124
      9          6           0       -0.651361    1.024887   -0.097226
     10          1           0        0.074551   -1.641523   -1.703976
     11          1           0        1.053484    0.726951   -1.411726
     12          1           0       -0.831972    1.035628    0.987698
     13          1           0        0.968259   -0.967828    1.127236
     14          8           0        0.146608   -3.101089   -0.231061
     15          8           0        2.291888   -1.367695   -0.433638
     16          8           0        1.711015    1.503833    0.339293
     17          1           0        3.023067   -0.967677    0.090750
     18          1           0        1.103540   -3.263938   -0.304456
     19          1           0        1.463928    1.492750    1.281537
     20          6           0       -0.982045    2.412415   -0.661506
     21          8           0       -0.303600    3.449747    0.022686
     22          1           0       -2.052853    2.598870   -0.531444
     23          1           0       -0.772250    2.421303   -1.743882
     24          1           0        0.645420    3.245088   -0.033610
     25          1           0       -2.177823   -1.812159   -0.807733
     26          8           0       -1.616801   -1.351136    1.128243
     27          1           0       -2.546909   -1.072026    1.285066
     28          8           0        4.193799    0.262126    0.743795
     29          1           0        4.882964    0.351838    0.067700
     30          1           0        3.518660    0.932018    0.508370
 ---------------------------------------------------------------------

 SCF Done:  E(RB3LYP) =  -840.003621039     A.U. after    1 cycles

 The electronic state is 1-A.
 Alpha  occ. eigenvalues --  -19.20088 -19.17597 -19.16309 -19.16176 -19.14775
 Alpha  occ. eigenvalues --  -19.14457 -19.14142 -19.13834 -10.29013 -10.25886
 Alpha  occ. eigenvalues --  -10.25230 -10.24186 -10.23911 -10.23759  -1.07947
 Alpha  occ. eigenvalues --   -1.06429  -1.03103  -1.02070  -1.01973  -1.01761
 Alpha  occ. eigenvalues --   -1.00732  -0.99980  -0.79096  -0.77238  -0.69188
 Alpha  occ. eigenvalues --   -0.65350  -0.62707  -0.59045  -0.55623  -0.54608
 Alpha  occ. eigenvalues --   -0.54245  -0.53455  -0.52356  -0.51873  -0.49957
 Alpha  occ. eigenvalues --   -0.47743  -0.45870  -0.44900  -0.44349  -0.43396
 Alpha  occ. eigenvalues --   -0.42485  -0.40605  -0.40317  -0.39719  -0.38135
 Alpha  occ. eigenvalues --   -0.37656  -0.36578  -0.35479  -0.34845  -0.32527
 Alpha  occ. eigenvalues --   -0.31855  -0.31473  -0.30507  -0.29519  -0.28389
 Alpha  occ. eigenvalues --   -0.27587  -0.26751  -0.25827
 Alpha virt. eigenvalues --    0.02973   0.05076   0.07127   0.08108   0.09270
 Alpha virt. eigenvalues --    0.10582   0.11308   0.13107   0.13493   0.14713
 Alpha virt. eigenvalues --    0.15077   0.16377   0.16733   0.17506   0.18684

 Mulliken charges:
               1
     1  C    0.294482
     2  O   -0.538843
     3  H    0.399784
     4  O   -0.801786
     5  H    0.422282
     6  C    0.154489
     7  C    0.077768
     8  C    0.083402
     9  C    0.100706
    10  H    0.124895
    11  H    0.156809
    12  H    0.142960
    13  H    0.140661
    14  O   -0.640055
    15  O   -0.689553
    16  O   -0.654871
    17  H    0.426056
    18  H    0.409915
    19  H    0.412948
    20  C   -0.041568
    21  O   -0.632040
    22  H    0.154893
    23  H    0.127929
    24  H    0.404761
    25  H    0.135063
    26  O   -0.625187
    27  H    0.431476
    28  O   -0.799234
    29  H    0.401440
    30  H    0.420418
 Sum of Mulliken charges =  -0.00000

 Dipole moment (field-independent basis, Debye):
    X=              0.5624    Y=              1.1323    Z=             -2.1467  Tot=              2.4913
 Quadrupole moment (field-independent basis, Debye-Ang):
   XX=            -66.3899   YY=            -98.2549   ZZ=            -85.2299
   XY=              7.5168   XZ=              2.1164   YZ=              0.8116

  Exact polarizability: 111.011   0.839  98.465   0.765   1.130  77.063
 Approx polarizability: 138.628   2.265 127.573   0.687   1.754 121.809

                      1                      2                      3
                      A                      A                      A
 Frequencies --     36.5201                52.8933                66.8626
 Red. masses --      5.8199                 5.6684                 5.7664
 Frc consts  --      0.0046                 0.0093                 0.0152
 IR Inten    --      1.8689                 2.5638                 6.3246

                      4                      5                      6
                      A                      A                      A
 Frequencies --     98.4698               116.5553               136.4852
 Red. masses --      5.9840                 3.9431                 5.0411
 Frc consts  --      0.0342                 0.0316                 0.0553
 IR Inten    --      2.2254                 0.6124                 3.0259

                      7                      8                      9
                      A                      A                      A
 Frequencies --    141.6779               174.7413               178.1059
 Red. masses --      6.0604                 5.1726                 4.9386
 Frc consts  --      0.0717                 0.0931                 0.0923
 IR Inten    --      6.0549                10.6168                29.1116

                     10                     11                     12
                      A                      A                      A
 Frequencies --    191.0134               218.6601               249.8760
 Red. masses --      4.4739                 3.5634                 1.2852
 Frc consts  --      0.0962                 0.1004                 0.0473
 IR Inten    --     10.3897                 9.4002               190.2828

                     13                     14                     15
                      A                      A                      A
 Frequencies --    268.8199               276.4713               280.8427
 Red. masses --      1.2084                 3.2623                 3.1593
 Frc consts  --      0.0515                 0.1469                 0.1468
 IR Inten    --     81.8076                11.7981                24.7304

                     16                     17                     18
                      A                      A                      A
 Frequencies --    308.4163               329.2630               348.5865
 Red. masses --      2.8478                 2.0740                 1.2707
 Frc consts  --      0.1596                 0.1325                 0.0910
 IR Inten    --    125.5060                53.3247               103.6004

                     19                     20                     21
                      A                      A                      A
 Frequencies --    364.0139               372.6602               393.3101
 Red. masses --      4.0882                 2.8911                 5.5283
 Frc consts  --      0.3192                 0.2366                 0.5039
 IR Inten    --     51.7760                54.8977                14.6269

                     22                     23                     24
                      A                      A                      A
 Frequencies --    429.5621               453.8288               463.1996
 Red. masses --      2.2509                 1.3670                 1.3080
 Frc consts  --      0.2447                 0.1659                 0.1653
 IR Inten    --     44.2369                30.0452                96.0098

                     25                     26                     27
                      A                      A                      A
 Frequencies --    485.9831               513.7159               553.5553
 Red. masses --      4.0195                 3.3786                 4.3653
 Frc consts  --      0.5593                 0.5253                 0.7881
 IR Inten    --     37.1589                 9.7734                26.1627

                     28                     29                     30
                      A                      A                      A
 Frequencies --    580.6313               599.9525               631.5655
 Red. masses --      3.1453                 1.1396                 1.2462
 Frc consts  --      0.6248                 0.2417                 0.2929
 IR Inten    --     50.3103                63.3164                95.2979

                     31                     32                     33
                      A                      A                      A
 Frequencies --    646.7200               666.7439               765.3372
 Red. masses --      3.2623                 1.0838                 3.5304
 Frc consts  --      0.8039                 0.2839                 1.2184
 IR Inten    --     36.7658               275.7277                30.4139

                     34                     35                     36
                      A                      A                      A
 Frequencies --    827.6608               850.7212               907.3791
 Red. masses --      1.1879                 1.0749                 1.7696
 Frc consts  --      0.4794                 0.4583                 0.8584
 IR Inten    --    104.7420               106.4396                30.8306

                     37                     38                     39
                      A                      A                      A
 Frequencies --    933.1859               958.8598              1004.8044
 Red. masses --      3.4786                 4.3236                 4.2756
 Frc consts  --      1.7848                 2.3421                 2.5434
 IR Inten    --     40.3324                89.6978                74.3643

                     40                     41                     42
                      A                      A                      A
 Frequencies --   1042.4697              1049.4565              1083.5974
 Red. masses --      5.0290                 5.4055                 2.3283
 Frc consts  --      3.2200                 3.5077                 1.6107
 IR Inten    --     60.0147               148.6060                51.1202

                     43                     44                     45
                      A                      A                      A
 Frequencies --   1099.3301              1112.1648              1131.2283
 Red. masses --      4.7858                 2.6129                 3.4794
 Frc consts  --      3.4077                 1.9042                 2.6234
 IR Inten    --    107.5845                26.6708                50.1637

                     46                     47                     48
                      A                      A                      A
 Frequencies --   1142.2448              1144.9247              1186.3561
 Red. masses --      2.4820                 3.6528                 3.1178
 Frc consts  --      1.9079                 2.8212                 2.5854
 IR Inten    --     18.4984                40.4166                74.9456

                     49                     50                     51
                      A                      A                      A
 Frequencies --   1213.3636              1233.7784              1268.7565
 Red. masses --      1.2143                 1.3367                 1.2399
 Frc consts  --      1.0533                 1.1988                 1.1759
 IR Inten    --     43.8682                21.1479                32.8662

                     52                     53                     54
                      A                      A                      A
 Frequencies --   1295.7383              1300.0666              1334.0751
 Red. masses --      1.2547                 1.1376                 1.2875
 Frc consts  --      1.2412                 1.1328                 1.3500
 IR Inten    --      4.7879                30.1404                23.6323

                     55                     56                     57
                      A                      A                      A
 Frequencies --   1343.1716              1387.2125              1403.5305
 Red. masses --      1.2449                 1.1903                 1.3288
 Frc consts  --      1.3232                 1.3496                 1.5422
 IR Inten    --      9.9690                21.3160                24.5515

                     58                     59                     60
                      A                      A                      A
 Frequencies --   1406.6427              1415.8416              1432.9091
 Red. masses --      1.2740                 1.3318                 1.2829
 Frc consts  --      1.4852                 1.5729                 1.5519
 IR Inten    --     14.4495                19.9030                34.5006

                     61                     62                     63
                      A                      A                      A
 Frequencies --   1439.8249              1458.7661              1465.5756
 Red. masses --      1.2700                 1.4323                 1.2596
 Frc consts  --      1.5513                 1.7958                 1.5941
 IR Inten    --     27.0047                69.1702                56.2295

                     64                     65                     66
                      A                      A                      A
 Frequencies --   1493.4428              1528.7966              1537.2046
 Red. masses --      1.3208                 1.5643                 1.0898
 Frc consts  --      1.7357                 2.1541                 1.5173
 IR Inten    --     19.1128                60.0946                 0.5244

                     67                     68                     69
                      A                      A                      A
 Frequencies --   1715.0619              1721.1058              2986.0966
 Red. masses --      1.0775                 1.0755                 1.0820
 Frc consts  --      1.8674                 1.8771                 5.6842
 IR Inten    --     51.7050                66.6718                24.6372

                     70                     71                     72
                      A                      A                      A
 Frequencies --   2996.1090              3013.3388              3031.2517
 Red. masses --      1.0713                 1.0839                 1.0826
 Frc consts  --      5.6662                 5.7987                 5.8609
 IR Inten    --     47.8193                26.5586                35.3701

                     73                     74                     75
                      A                      A                      A
 Frequencies --   3061.0801              3094.4154              3104.1418
 Red. masses --      1.0872                 1.0866                 1.0942
 Frc consts  --      6.0023                 6.1300                 6.2118
 IR Inten    --     60.3216                24.6468                38.6587

                     76                     77                     78
                      A                      A                      A
 Frequencies --   3473.5224              3518.1232              3593.1316
 Red. masses --      1.0675                 1.0651                 1.0559
 Frc consts  --      7.5885                 7.7673                 8.0319
 IR Inten    --    446.1303               230.8257               496.7988

                     79                     80                     81
                      A                      A                      A
 Frequencies --   3616.7893              3693.8361              3701.9655
 Red. masses --      1.0546                 1.0657                 1.0651
 Frc consts  --      8.1277                 8.5670                 8.6002
 IR Inten    --    271.4124                31.8609                46.2600

                     82                     83                     84
                      A                      A                      A
 Frequencies --   3703.4513              3799.1182              3806.4388
 Red. masses --      1.0656                 1.0724                 1.0739
 Frc consts  --      8.6110                 9.1191                 9.1674
 IR Inten    --     54.8242                91.5175                83.4231

 - Thermochemistry -
 -------------------
 Temperature   298.150 Kelvin.  Pressure   1.00000 Atm.
 Atom     1 has atomic number  6 and mass  12.00000

 Molecular mass:   216.08452 amu.
 Principal axes and moments of inertia in atomic units:
                           1         2         3
     Eigenvalues --  2568.329483544.262885552.49634
           X            0.99997   0.00658   0.00269
           Y           -0.00657   0.99998  -0.00125
           Z           -0.00269   0.00123   1.00000
 This molecule is an asymmetric top.
 Rotational symmetry number  1.
 Warning -- assumption of classical behavior for rotation
           may cause significant error
 Rotational temperatures (Kelvin)      0.03372     0.02444     0.01560
 Rotational constants (GHZ):           0.70269     0.50920     0.32503
 Zero-point vibrational energy     654698.8 (Joules/Mol)
                                  156.47678 (Kcal/Mol)
 Warning -- explicit consideration of  29 degrees of freedom as
           vibrations may cause significant error
 Vibrational temperatures:     52.54    76.10    96.20   141.68   167.70
          (Kelvin)            196.37   203.84   251.41   256.25   274.83
                              314.60   359.52   386.77   397.78   404.07
                              443.74   473.74   501.54   523.73   536.17
                              565.88   618.04   652.96   666.44   699.22
                              739.12   796.44   835.40   863.20   908.68
                              930.48   959.29  1101.15  1190.82  1224.00
                             1305.51  1342.64  1379.58  1445.69  1499.88
                             1509.93  1559.05  1581.69  1600.16  1627.58
                             1643.43  1647.29  1706.90  1745.76  1775.13
                             1825.46  1864.28  1870.50  1919.43  1932.52
                             1995.89  2019.36  2023.84  2037.08  2061.63
                             2071.58  2098.84  2108.63  2148.73  2199.59
                             2211.69  2467.59  2476.28  4296.32  4310.73
                             4335.52  4361.29  4404.21  4452.17  4466.16
                             4997.62  5061.79  5169.71  5203.75  5314.60
                             5326.30  5328.43  5466.08  5476.61

 Zero-point correction=                           0.249362 (Hartree/Particle)
 Thermal correction to Energy=                    0.266703
 Thermal correction to Enthalpy=                  0.267647
 Thermal correction to Gibbs Free Energy=         0.205134
 Sum of electronic and zero-point Energies=           -839.754259
 Sum of electronic and thermal Energies=              -839.736918
 Sum of electronic and thermal Enthalpies=            -839.735974
 Sum of electronic and thermal Free Energies=         -839.798487

                     E (Thermal)             CV                S
                      KCal/Mol        Cal/Mol-Kelvin    Cal/Mol-Kelvin
 Total                  167.359             64.216            131.570
 Electronic               0.000              0.000              0.000
 Translational            0.889              2.981             42.015
 Rotational               0.889              2.981             32.291
 Vibrational            165.581             58.254             57.264
 Vibration     1          0.594              1.982              5.439
 Vibration     2          0.596              1.976              4.706
 Vibration     3          0.598              1.970              4.244
 Vibration     4          0.604              1.950              3.484
 Vibration     5          0.608              1.936              3.157
 Vibration     6          0.614              1.917              2.853
 Vibration     7          0.615              1.912              2.781
 Vibration     8          0.627              1.874              2.384
 Vibration     9          0.629              1.869              2.348
 Vibration    10          0.634              1.852              2.218
 Vibration    11          0.646              1.813              1.970
 Vibration    12          0.663              1.763              1.731
 Vibration    13          0.673              1.730              1.604
 Vibration    14          0.678              1.717              1.555
 Vibration    15          0.681              1.709              1.529
 Vibration    16          0.698              1.658              1.371
 Vibration    17          0.712              1.617              1.264
 Vibration    18          0.726              1.578              1.173
 Vibration    19          0.738              1.546              1.105
 Vibration    20          0.744              1.528              1.069
 Vibration    21          0.761              1.484              0.988
 Vibration    22          0.791              1.406              0.860
 Vibration    23          0.812              1.352              0.784
 Vibration    24          0.821              1.332              0.757
 Vibration    25          0.842              1.281              0.694
 Vibration    26          0.869              1.220              0.625
 Vibration    27          0.909              1.132              0.537
 Vibration    28          0.937              1.073              0.484
 Vibration    29          0.958              1.032              0.450

 Normal termination of Gaussian 09 at Sun Jan 15 12:47:10 2017.
