 Gaussian 09, Revision E.01,
 Gaussian 09:  ES64L-G09RevE.01 30-Nov-2015

 -----------------------------------------
 # opt=(MaxCycle=1000) freq B3LYP/6-31G(d)
 -----------------------------------------

 -------------------------------------------------
 ./chairs/1/glo_1w_beta_ircr_chair_B3LYP_631Gd.out
 -------------------------------------------------
 Symbolic Z-matrix:
 Charge =  0 Multiplicity = 1

 SCF Done:  E(RB3LYP) =  -840.003650152     A.U. after   14 cycles
 Optimization completed.
    -- Stationary point found.
 Normal termination of Gaussian 09 at Sun Jan 15 12:20:01 2017.

 --------------------------------------------------------------------
 #N Geom=AllCheck Guess=TCheck SCRF=Check GenChk RB3LYP/6-31G(d) Freq
 --------------------------------------------------------------------

 Structure from the checkpoint file:  "/scratch/10462967.yak.local/Gau-25173.chk"
 -------------------------------------------------
 ./chairs/1/glo_1w_beta_ircr_chair_B3LYP_631Gd.out
 -------------------------------------------------
 Charge =  0 Multiplicity = 1

                         Standard orientation:
 ---------------------------------------------------------------------
 Center     Atomic      Atomic             Coordinates (Angstroms)
 Number     Number       Type             X           Y           Z
 ---------------------------------------------------------------------
      1          6           0        1.659982   -0.410549   -0.897961
      2          8           0        1.358952    0.928550   -0.393246
      3          1           0        2.786801    0.020869    2.447520
      4          8           0        3.019114   -0.587292   -0.866322
      5          1           0        3.313181   -0.525506    0.069421
      6          8           0        3.247396    0.457949    1.715263
      7          1           0        2.549378    0.942824    1.233499
      8          6           0        0.853082   -1.398190   -0.047352
      9          6           0       -0.645094   -1.079069   -0.108071
     10          6           0       -0.921707    0.373097    0.292620
     11          6           0       -0.006494    1.309765   -0.523276
     12          6           0       -0.062377    2.767557   -0.068054
     13          8           0       -1.417015    3.219978   -0.184100
     14          8           0        1.078694   -2.712602   -0.505631
     15          8           0       -1.280299   -2.029554    0.727762
     16          8           0       -2.298225    0.666866    0.041051
     17          1           0        1.348639   -0.466217   -1.949341
     18          1           0        1.189781   -1.283176    0.998828
     19          1           0        0.358275   -3.234367   -0.107563
     20          1           0       -2.236329   -2.061453    0.483610
     21          1           0       -2.391752    1.639410    0.067778
     22          1           0       -0.697461    0.492084    1.365465
     23          1           0       -0.315797    1.253859   -1.579299
     24          1           0        0.610240    3.366875   -0.694570
     25          1           0        0.285887    2.831460    0.973559
     26          1           0       -1.482643    4.109326    0.193926
     27          8           0       -3.915375   -1.572430    0.072029
     28          1           0       -4.382099   -1.573972    0.921844
     29          1           0       -0.975547   -1.202914   -1.152969
     30          1           0       -3.570840   -0.656503   -0.013585
 ---------------------------------------------------------------------

 SCF Done:  E(RB3LYP) =  -840.003650152     A.U. after    1 cycles

 The electronic state is 1-A.
 Alpha  occ. eigenvalues --  -19.19315 -19.17366 -19.16586 -19.15687 -19.15175
 Alpha  occ. eigenvalues --  -19.13972 -19.13632 -19.13528 -10.28596 -10.26430
 Alpha  occ. eigenvalues --  -10.25996 -10.25033 -10.23833 -10.23350  -1.07576
 Alpha  occ. eigenvalues --   -1.06163  -1.04010  -1.02469  -1.01482  -1.00988
 Alpha  occ. eigenvalues --   -1.00619  -0.99477  -0.78985  -0.77303  -0.69893
 Alpha  occ. eigenvalues --   -0.64131  -0.62594  -0.59796  -0.56946  -0.55079
 Alpha  occ. eigenvalues --   -0.53483  -0.52840  -0.52459  -0.51776  -0.48837
 Alpha  occ. eigenvalues --   -0.48099  -0.47015  -0.45658  -0.45519  -0.43751
 Alpha  occ. eigenvalues --   -0.41374  -0.41174  -0.39372  -0.39162  -0.38318
 Alpha  occ. eigenvalues --   -0.37549  -0.36148  -0.34862  -0.34015  -0.32987
 Alpha  occ. eigenvalues --   -0.31422  -0.31150  -0.30545  -0.29712  -0.28435
 Alpha  occ. eigenvalues --   -0.26959  -0.26827  -0.25697
 Alpha virt. eigenvalues --    0.02563   0.04532   0.06717   0.08050   0.09865
 Alpha virt. eigenvalues --    0.11298   0.11440   0.12681   0.13968   0.14424
 Alpha virt. eigenvalues --    0.14861   0.16676   0.17303   0.18449   0.18818

 Mulliken charges:
               1
     1  C    0.336768
     2  O   -0.532804
     3  H    0.398062
     4  O   -0.622058
     5  H    0.425132
     6  O   -0.792468
     7  H    0.411256
     8  C    0.133588
     9  C    0.071722
    10  C    0.140513
    11  C    0.102393
    12  C   -0.056906
    13  O   -0.638905
    14  O   -0.636386
    15  O   -0.689141
    16  O   -0.689445
    17  H    0.142227
    18  H    0.090064
    19  H    0.408624
    20  H    0.428168
    21  H    0.434775
    22  H    0.113417
    23  H    0.146587
    24  H    0.162865
    25  H    0.136961
    26  H    0.415344
    27  O   -0.801896
    28  H    0.395205
    29  H    0.132146
    30  H    0.434192
 Sum of Mulliken charges =  -0.00000

 Dipole moment (field-independent basis, Debye):
    X=             -4.0423    Y=              5.2272    Z=              3.3156  Tot=              7.3930
 Quadrupole moment (field-independent basis, Debye-Ang):
   XX=            -97.0316   YY=            -74.0323   ZZ=            -80.3363
   XY=             -3.4460   XZ=             -2.2510   YZ=             -1.2979

  Exact polarizability: 105.264  -1.718 101.800  -0.666   0.463  80.632
 Approx polarizability: 137.677  -1.987 129.400   1.327   0.988 122.367

                      1                      2                      3
                      A                      A                      A
 Frequencies --     35.6296                56.7351                70.9997
 Red. masses --      5.9744                 6.7676                 5.6555
 Frc consts  --      0.0045                 0.0128                 0.0168
 IR Inten    --      0.7654                 1.9068                 2.1649

                      4                      5                      6
                      A                      A                      A
 Frequencies --     79.0505               111.5676               130.6583
 Red. masses --      5.7956                 7.4458                 3.5030
 Frc consts  --      0.0213                 0.0546                 0.0352
 IR Inten    --      3.0796                 1.9521                 4.0707

                      7                      8                      9
                      A                      A                      A
 Frequencies --    159.0399               189.1258               196.7397
 Red. masses --      4.6359                 6.5430                 5.3527
 Frc consts  --      0.0691                 0.1379                 0.1221
 IR Inten    --      5.3770                 4.3063                 2.9499

                     10                     11                     12
                      A                      A                      A
 Frequencies --    214.3382               232.3129               253.1411
 Red. masses --      3.5002                 5.4246                 1.4845
 Frc consts  --      0.0947                 0.1725                 0.0560
 IR Inten    --     10.0914                13.2622                24.6175

                     13                     14                     15
                      A                      A                      A
 Frequencies --    276.5563               284.3699               291.8645
 Red. masses --      1.2006                 1.5722                 1.5323
 Frc consts  --      0.0541                 0.0749                 0.0769
 IR Inten    --     61.1607                86.8740                46.3408

                     16                     17                     18
                      A                      A                      A
 Frequencies --    297.3317               309.4103               320.6828
 Red. masses --      1.4346                 2.0741                 2.4662
 Frc consts  --      0.0747                 0.1170                 0.1494
 IR Inten    --     54.2253                57.0315                52.5578

                     19                     20                     21
                      A                      A                      A
 Frequencies --    338.3957               378.6595               381.6858
 Red. masses --      5.6681                 5.7554                 1.5986
 Frc consts  --      0.3824                 0.4862                 0.1372
 IR Inten    --      7.7344                 2.5119               119.1141

                     22                     23                     24
                      A                      A                      A
 Frequencies --    406.9882               415.6943               439.3602
 Red. masses --      3.8852                 4.2530                 4.9193
 Frc consts  --      0.3792                 0.4330                 0.5595
 IR Inten    --      4.2259                 7.2262                 7.5347

                     25                     26                     27
                      A                      A                      A
 Frequencies --    480.6959               516.1550               551.3629
 Red. masses --      5.1276                 1.1378                 2.9070
 Frc consts  --      0.6981                 0.1786                 0.5207
 IR Inten    --      1.5840               114.4398                25.9712

                     28                     29                     30
                      A                      A                      A
 Frequencies --    581.4382               593.6264               615.3724
 Red. masses --      1.3154                 2.5007                 1.1493
 Frc consts  --      0.2620                 0.5192                 0.2564
 IR Inten    --     75.7875                71.1989               345.3933

                     31                     32                     33
                      A                      A                      A
 Frequencies --    632.2129               669.1459               699.9017
 Red. masses --      3.0671                 2.9954                 1.2381
 Frc consts  --      0.7223                 0.7902                 0.3573
 IR Inten    --     14.2279                32.6583               129.9711

                     34                     35                     36
                      A                      A                      A
 Frequencies --    807.8060               882.1668               914.4115
 Red. masses --      1.0729                 1.0964                 2.0717
 Frc consts  --      0.4125                 0.5027                 1.0206
 IR Inten    --     95.3177               156.3647                40.0791

                     37                     38                     39
                      A                      A                      A
 Frequencies --    952.8191              1011.5724              1035.9813
 Red. masses --      4.1736                 3.6593                 3.5821
 Frc consts  --      2.2324                 2.2062                 2.2651
 IR Inten    --    137.3425                 9.5654                 8.5629

                     40                     41                     42
                      A                      A                      A
 Frequencies --   1055.2151              1073.7426              1096.3177
 Red. masses --      4.0495                 5.8194                 4.8687
 Frc consts  --      2.6566                 3.9530                 3.4478
 IR Inten    --     66.4253               116.5955               217.4375

                     43                     44                     45
                      A                      A                      A
 Frequencies --   1108.4359              1116.5172              1133.1073
 Red. masses --      3.2626                 2.5875                 3.6502
 Frc consts  --      2.3618                 1.9005                 2.7613
 IR Inten    --      5.3633                 1.6966               125.5126

                     46                     47                     48
                      A                      A                      A
 Frequencies --   1155.4285              1158.7645              1213.6381
 Red. masses --      2.6835                 4.1700                 2.1337
 Frc consts  --      2.1107                 3.2989                 1.8516
 IR Inten    --      1.1865                39.7850               139.3387

                     49                     50                     51
                      A                      A                      A
 Frequencies --   1215.6970              1246.8695              1262.8801
 Red. masses --      1.3278                 1.2271                 1.2526
 Frc consts  --      1.1562                 1.1240                 1.1770
 IR Inten    --     64.2375                 7.0988                17.7281

                     52                     53                     54
                      A                      A                      A
 Frequencies --   1283.8951              1308.3931              1319.7217
 Red. masses --      1.1810                 1.1606                 1.1394
 Frc consts  --      1.1470                 1.1706                 1.1692
 IR Inten    --     40.8169                 8.0251                 3.5540

                     55                     56                     57
                      A                      A                      A
 Frequencies --   1346.5744              1369.7381              1387.6037
 Red. masses --      1.1831                 1.2487                 1.3719
 Frc consts  --      1.2640                 1.3803                 1.5563
 IR Inten    --     11.6307                15.1303                48.2042

                     58                     59                     60
                      A                      A                      A
 Frequencies --   1395.7726              1402.1430              1427.3964
 Red. masses --      1.2994                 1.2878                 1.3477
 Frc consts  --      1.4915                 1.4917                 1.6179
 IR Inten    --     35.8695                49.4480                19.8125

                     61                     62                     63
                      A                      A                      A
 Frequencies --   1452.3407              1471.6584              1490.2559
 Red. masses --      1.4366                 1.6569                 1.5430
 Frc consts  --      1.7854                 2.1142                 2.0190
 IR Inten    --     11.6860                28.8925                40.5158

                     64                     65                     66
                      A                      A                      A
 Frequencies --   1509.2796              1524.9349              1551.1308
 Red. masses --      1.2111                 1.2652                 1.0899
 Frc consts  --      1.6255                 1.7335                 1.5450
 IR Inten    --     73.2179                61.1313                 3.3797

                     67                     68                     69
                      A                      A                      A
 Frequencies --   1708.7581              1724.9183              2963.4433
 Red. masses --      1.0783                 1.0756                 1.0809
 Frc consts  --      1.8551                 1.8855                 5.5926
 IR Inten    --     73.1042                56.0289                33.9987

                     70                     71                     72
                      A                      A                      A
 Frequencies --   2989.9925              2999.0850              3011.4149
 Red. masses --      1.0812                 1.0838                 1.0810
 Frc consts  --      5.6950                 5.7435                 5.7756
 IR Inten    --      1.6885                25.6800                30.0789

                     73                     74                     75
                      A                      A                      A
 Frequencies --   3023.4984              3061.0851              3077.7135
 Red. masses --      1.0657                 1.0874                 1.1043
 Frc consts  --      5.7398                 6.0036                 6.1631
 IR Inten    --     91.9317                64.5567                48.9119

                     76                     77                     78
                      A                      A                      A
 Frequencies --   3427.6039              3528.1984              3563.8670
 Red. masses --      1.0675                 1.0657                 1.0576
 Frc consts  --      7.3891                 7.8163                 7.9147
 IR Inten    --    468.2980               189.0622               652.4017

                     79                     80                     81
                      A                      A                      A
 Frequencies --   3622.0100              3640.1126              3684.3149
 Red. masses --      1.0653                 1.0525                 1.0649
 Frc consts  --      8.2343                 8.2165                 8.5167
 IR Inten    --    193.6727               202.2393                45.7465

                     82                     83                     84
                      A                      A                      A
 Frequencies --   3770.2839              3794.9670              3808.0524
 Red. masses --      1.0667                 1.0706                 1.0753
 Frc consts  --      8.9341                 9.0843                 9.1877
 IR Inten    --     36.4381                72.4774                69.7316

 - Thermochemistry -
 -------------------
 Temperature   298.150 Kelvin.  Pressure   1.00000 Atm.
 Atom     1 has atomic number  6 and mass  12.00000

 Molecular mass:   216.08452 amu.
 Principal axes and moments of inertia in atomic units:
                           1         2         3
     Eigenvalues --  2661.086583547.509145425.62328
           X            0.99983   0.01793   0.00471
           Y           -0.01793   0.99984   0.00037
           Z           -0.00470  -0.00045   0.99999
 This molecule is an asymmetric top.
 Rotational symmetry number  1.
 Warning -- assumption of classical behavior for rotation
           may cause significant error
 Rotational temperatures (Kelvin)      0.03255     0.02442     0.01596
 Rotational constants (GHZ):           0.67820     0.50873     0.33263
 Zero-point vibrational energy     653710.0 (Joules/Mol)
                                  156.24044 (Kcal/Mol)
 Warning -- explicit consideration of  30 degrees of freedom as
           vibrations may cause significant error
 Vibrational temperatures:     51.26    81.63   102.15   113.74   160.52
          (Kelvin)            187.99   228.82   272.11   283.06   308.38
                              334.25   364.21   397.90   409.14   419.93
                              427.79   445.17   461.39   486.88   544.81
                              549.16   585.56   598.09   632.14   691.61
                              742.63   793.29   836.56   854.09   885.38
                              909.61   962.75  1007.00  1162.25  1269.24
                             1315.63  1370.89  1455.43  1490.54  1518.22
                             1544.87  1577.35  1594.79  1606.42  1630.29
                             1662.40  1667.20  1746.15  1749.11  1793.96
                             1817.00  1847.24  1882.48  1898.78  1937.42
                             1970.75  1996.45  2008.20  2017.37  2053.70
                             2089.59  2117.39  2144.14  2171.51  2194.04
                             2231.73  2458.52  2481.77  4263.73  4301.93
                             4315.01  4332.75  4350.13  4404.21  4428.14
                             4931.55  5076.28  5127.60  5211.26  5237.30
                             5300.90  5424.59  5460.10  5478.93

 Zero-point correction=                           0.248985 (Hartree/Particle)
 Thermal correction to Energy=                    0.266384
 Thermal correction to Enthalpy=                  0.267328
 Thermal correction to Gibbs Free Energy=         0.204764
 Sum of electronic and zero-point Energies=           -839.754665
 Sum of electronic and thermal Energies=              -839.737267
 Sum of electronic and thermal Enthalpies=            -839.736322
 Sum of electronic and thermal Free Energies=         -839.798887

                     E (Thermal)             CV                S
                      KCal/Mol        Cal/Mol-Kelvin    Cal/Mol-Kelvin
 Total                  167.158             64.398            131.677
 Electronic               0.000              0.000              0.000
 Translational            0.889              2.981             42.015
 Rotational               0.889              2.981             32.305
 Vibrational            165.381             58.436             57.358
 Vibration     1          0.594              1.982              5.488
 Vibration     2          0.596              1.975              4.568
 Vibration     3          0.598              1.968              4.125
 Vibration     4          0.600              1.963              3.914
 Vibration     5          0.607              1.940              3.241
 Vibration     6          0.612              1.923              2.936
 Vibration     7          0.621              1.892              2.561
 Vibration     8          0.633              1.855              2.236
 Vibration     9          0.636              1.844              2.163
 Vibration    10          0.644              1.819              2.006
 Vibration    11          0.653              1.792              1.861
 Vibration    12          0.664              1.757              1.709
 Vibration    13          0.678              1.717              1.555
 Vibration    14          0.683              1.703              1.507
 Vibration    15          0.687              1.689              1.463
 Vibration    16          0.691              1.679              1.432
 Vibration    17          0.699              1.656              1.365
 Vibration    18          0.706              1.634              1.307
 Vibration    19          0.719              1.599              1.220
 Vibration    20          0.749              1.516              1.045
 Vibration    21          0.751              1.509              1.032
 Vibration    22          0.772              1.455              0.937
 Vibration    23          0.779              1.436              0.907
 Vibration    24          0.799              1.384              0.829
 Vibration    25          0.837              1.293              0.708
 Vibration    26          0.871              1.214              0.619
 Vibration    27          0.907              1.137              0.541
 Vibration    28          0.938              1.071              0.483
 Vibration    29          0.951              1.045              0.461
 Vibration    30          0.975              0.999              0.424

 Normal termination of Gaussian 09 at Sun Jan 15 12:36:38 2017.
