 Gaussian 09, Revision E.01,
 Gaussian 09:  ES64L-G09RevE.01 30-Nov-2015

 -----------------------------------------
 # opt=(MaxCycle=1000) freq B3LYP/6-31G(d)
 -----------------------------------------

 -------------------------------------------------
 ./chairs/1/glo_2w_beta_ircf_chair_B3LYP_631Gd.out
 -------------------------------------------------
 Symbolic Z-matrix:
 Charge =  0 Multiplicity = 1

 SCF Done:  E(RB3LYP) =  -840.005033703     A.U. after   13 cycles
 Optimization completed.
    -- Stationary point found.
 Normal termination of Gaussian 09 at Sun Jan 15 12:30:45 2017.

 --------------------------------------------------------------------
 #N Geom=AllCheck Guess=TCheck SCRF=Check GenChk RB3LYP/6-31G(d) Freq
 --------------------------------------------------------------------

 Structure from the checkpoint file:  "/scratch/10462971.yak.local/Gau-32146.chk"
 -------------------------------------------------
 ./chairs/1/glo_2w_beta_ircf_chair_B3LYP_631Gd.out
 -------------------------------------------------
 Charge =  0 Multiplicity = 1

                         Standard orientation:
 ---------------------------------------------------------------------
 Center     Atomic      Atomic             Coordinates (Angstroms)
 Number     Number       Type             X           Y           Z
 ---------------------------------------------------------------------
      1          6           0        0.908532   -0.936368   -0.051417
      2          8           0        0.632467    0.446089    0.381418
      3          8           0        2.013546   -1.368896    0.619981
      4          1           0        2.834106   -1.090698    0.138205
      5          1           0        2.763462    2.322782   -0.870680
      6          1           0        4.979178   -0.543350    0.058876
      7          8           0        4.249977   -0.326176   -0.541819
      8          1           0        3.985547    0.596506   -0.302979
      9          8           0        2.947315    2.007600    0.027691
     10          1           0        2.148396    1.482824    0.269637
     11          6           0       -0.296942   -1.809034    0.302290
     12          6           0       -1.577220   -1.213190   -0.274450
     13          6           0       -1.783101    0.222694    0.181069
     14          6           0       -0.536715    1.052234   -0.170820
     15          1           0        1.050570   -0.914214   -1.145247
     16          1           0       -0.370612   -1.836024    1.400664
     17          1           0       -1.912205    0.233226    1.275703
     18          1           0       -0.461617    1.107127   -1.272816
     19          1           0       -1.493593   -1.211297   -1.374763
     20          8           0       -0.077351   -3.102552   -0.230039
     21          8           0       -2.650776   -2.055448    0.127294
     22          8           0       -2.951894    0.699282   -0.473578
     23          1           0       -3.464118   -1.632138   -0.194292
     24          1           0       -0.928276   -3.565184   -0.146641
     25          1           0       -3.037354    1.638523   -0.224619
     26          6           0       -0.596936    2.468769    0.415822
     27          8           0       -1.763877    3.182711   -0.006377
     28          1           0        0.319873    3.023199    0.173753
     29          1           0       -0.663004    2.400610    1.505291
     30          1           0       -1.651315    3.416593   -0.941622
 ---------------------------------------------------------------------

 SCF Done:  E(RB3LYP) =  -840.005033703     A.U. after    1 cycles

 The electronic state is 1-A.
 Alpha  occ. eigenvalues --  -19.18632 -19.17496 -19.16368 -19.15302 -19.15295
 Alpha  occ. eigenvalues --  -19.14959 -19.13709 -19.13658 -10.28878 -10.25809
 Alpha  occ. eigenvalues --  -10.25781 -10.24383 -10.23794 -10.23247  -1.07214
 Alpha  occ. eigenvalues --   -1.05474  -1.03954  -1.02334  -1.02226  -1.01117
 Alpha  occ. eigenvalues --   -1.00444  -0.99678  -0.78727  -0.77350  -0.69807
 Alpha  occ. eigenvalues --   -0.64162  -0.62898  -0.58965  -0.55548  -0.54328
 Alpha  occ. eigenvalues --   -0.54025  -0.52905  -0.52391  -0.51820  -0.50651
 Alpha  occ. eigenvalues --   -0.48620  -0.46387  -0.45166  -0.44135  -0.43367
 Alpha  occ. eigenvalues --   -0.41490  -0.41158  -0.40439  -0.38877  -0.38209
 Alpha  occ. eigenvalues --   -0.36371  -0.35899  -0.35069  -0.34367  -0.32901
 Alpha  occ. eigenvalues --   -0.31993  -0.30714  -0.30604  -0.28915  -0.28429
 Alpha  occ. eigenvalues --   -0.27863  -0.26538  -0.26100
 Alpha virt. eigenvalues --    0.03281   0.03872   0.07022   0.08637   0.08959
 Alpha virt. eigenvalues --    0.11045   0.11416   0.12868   0.13399   0.14179
 Alpha virt. eigenvalues --    0.14558   0.16245   0.17134   0.18304   0.18658

 Mulliken charges:
               1
     1  C    0.345890
     2  O   -0.545896
     3  O   -0.643090
     4  H    0.435967
     5  H    0.395154
     6  H    0.400927
     7  O   -0.815342
     8  H    0.422766
     9  O   -0.810950
    10  H    0.441348
    11  C    0.132553
    12  C    0.093111
    13  C    0.125476
    14  C    0.095354
    15  H    0.118245
    16  H    0.139201
    17  H    0.130370
    18  H    0.112458
    19  H    0.123176
    20  O   -0.638634
    21  O   -0.655944
    22  O   -0.673267
    23  H    0.413316
    24  H    0.409939
    25  H    0.415222
    26  C   -0.072999
    27  O   -0.617402
    28  H    0.142013
    29  H    0.177293
    30  H    0.403743
 Sum of Mulliken charges =  -0.00000

 Dipole moment (field-independent basis, Debye):
    X=             -0.6080    Y=              3.8242    Z=             -1.9608  Tot=              4.3403
 Quadrupole moment (field-independent basis, Debye-Ang):
   XX=            -80.1328   YY=            -85.8300   ZZ=            -82.5779
   XY=              2.7908   XZ=              1.6939   YZ=             -6.7936

  Exact polarizability: 109.527  -2.143 103.231   2.214  -2.796  75.626
 Approx polarizability: 138.607  -4.586 131.071   3.983  -4.754 118.951

                      1                      2                      3
                      A                      A                      A
 Frequencies --     25.7749                43.3721                67.0781
 Red. masses --      5.5247                 5.7309                 7.2166
 Frc consts  --      0.0022                 0.0064                 0.0191
 IR Inten    --      0.1152                 0.9443                 0.6869

                      4                      5                      6
                      A                      A                      A
 Frequencies --     77.6492               109.5815               122.2084
 Red. masses --      6.1749                 5.3668                 6.0574
 Frc consts  --      0.0219                 0.0380                 0.0533
 IR Inten    --      4.2408                 5.5511                 1.1744

                      7                      8                      9
                      A                      A                      A
 Frequencies --    161.6446               174.9942               203.1274
 Red. masses --      4.0334                 4.3956                 5.3755
 Frc consts  --      0.0621                 0.0793                 0.1307
 IR Inten    --      8.8172                 3.5232                 5.3642

                     10                     11                     12
                      A                      A                      A
 Frequencies --    219.8856               245.9716               246.5325
 Red. masses --      3.4493                 1.3206                 3.1281
 Frc consts  --      0.0983                 0.0471                 0.1120
 IR Inten    --      4.9578                90.9253                26.7785

                     13                     14                     15
                      A                      A                      A
 Frequencies --    269.3200               276.1891               305.7292
 Red. masses --      3.8638                 3.7817                 3.9589
 Frc consts  --      0.1651                 0.1700                 0.2180
 IR Inten    --     70.6834                 4.6350                 8.6857

                     16                     17                     18
                      A                      A                      A
 Frequencies --    321.6971               330.7800               343.3384
 Red. masses --      2.3500                 1.8261                 3.9864
 Frc consts  --      0.1433                 0.1177                 0.2769
 IR Inten    --     66.9316                68.3393                64.4028

                     19                     20                     21
                      A                      A                      A
 Frequencies --    369.1659               390.4095               405.9966
 Red. masses --      1.1204                 1.5324                 1.2724
 Frc consts  --      0.0900                 0.1376                 0.1236
 IR Inten    --     49.0282               126.8480               173.9857

                     22                     23                     24
                      A                      A                      A
 Frequencies --    412.8637               421.8383               436.2132
 Red. masses --      2.7642                 1.7249                 2.2615
 Frc consts  --      0.2776                 0.1808                 0.2535
 IR Inten    --     48.2388                18.5859                48.4710

                     25                     26                     27
                      A                      A                      A
 Frequencies --    448.7665               484.5023               524.4615
 Red. masses --      2.9030                 5.3528                 1.1037
 Frc consts  --      0.3445                 0.7403                 0.1789
 IR Inten    --     34.5059                 5.6215                21.5516

                     28                     29                     30
                      A                      A                      A
 Frequencies --    557.8761               593.0108               623.3062
 Red. masses --      2.8875                 4.6849                 1.5722
 Frc consts  --      0.5295                 0.9707                 0.3599
 IR Inten    --      9.1300                16.6884               114.0017

                     31                     32                     33
                      A                      A                      A
 Frequencies --    635.2719               671.6051               710.3923
 Red. masses --      1.7420                 4.6985                 1.1301
 Frc consts  --      0.4142                 1.2487                 0.3360
 IR Inten    --     33.6875                17.2267               117.3189

                     34                     35                     36
                      A                      A                      A
 Frequencies --    790.6715               905.0810               934.7471
 Red. masses --      1.0781                 2.1889                 3.6344
 Frc consts  --      0.3971                 1.0565                 1.8710
 IR Inten    --    124.5570                88.9255               189.5239

                     37                     38                     39
                      A                      A                      A
 Frequencies --   1017.4475              1028.6305              1037.6702
 Red. masses --      3.8720                 1.2039                 2.9247
 Frc consts  --      2.3616                 0.7505                 1.8554
 IR Inten    --     61.9655               133.1389                 5.5688

                     40                     41                     42
                      A                      A                      A
 Frequencies --   1049.8733              1068.6784              1081.9709
 Red. masses --      2.9394                 3.6178                 4.4531
 Frc consts  --      1.9089                 2.4344                 3.0715
 IR Inten    --     90.0427                56.4127               113.8704

                     43                     44                     45
                      A                      A                      A
 Frequencies --   1091.8454              1120.0214              1136.0001
 Red. masses --      2.5370                 2.6501                 2.9680
 Frc consts  --      1.7819                 1.9587                 2.2567
 IR Inten    --     55.4028                41.5675               120.6187

                     46                     47                     48
                      A                      A                      A
 Frequencies --   1142.0659              1148.1372              1191.2084
 Red. masses --      3.3772                 3.9201                 1.5118
 Frc consts  --      2.5953                 3.0446                 1.2639
 IR Inten    --     14.5466                36.1118                 4.4621

                     49                     50                     51
                      A                      A                      A
 Frequencies --   1230.1158              1232.1114              1271.7283
 Red. masses --      2.4978                 1.3240                 1.1445
 Frc consts  --      2.2269                 1.1842                 1.0906
 IR Inten    --     62.2781                31.8797                33.4778

                     52                     53                     54
                      A                      A                      A
 Frequencies --   1282.2671              1313.7336              1345.2594
 Red. masses --      1.1410                 1.1773                 1.2028
 Frc consts  --      1.1053                 1.1972                 1.2825
 IR Inten    --     29.5594                 6.8784                 3.9787

                     55                     56                     57
                      A                      A                      A
 Frequencies --   1359.9222              1369.0238              1384.1070
 Red. masses --      1.1908                 1.2289                 1.2389
 Frc consts  --      1.2976                 1.3570                 1.3984
 IR Inten    --     19.0379                94.0032                75.8265

                     58                     59                     60
                      A                      A                      A
 Frequencies --   1392.6050              1405.9669              1425.0721
 Red. masses --      1.2580                 1.2659                 1.4299
 Frc consts  --      1.4374                 1.4743                 1.7110
 IR Inten    --     72.2168                 9.0452                 8.8905

                     61                     62                     63
                      A                      A                      A
 Frequencies --   1430.1691              1453.6209              1458.3175
 Red. masses --      1.3392                 1.6747                 1.4096
 Frc consts  --      1.6139                 2.0849                 1.7663
 IR Inten    --     38.1321                14.1734                27.7739

                     64                     65                     66
                      A                      A                      A
 Frequencies --   1480.1662              1537.4021              1560.8494
 Red. masses --      1.5567                 1.0883                 1.4015
 Frc consts  --      2.0095                 1.5156                 2.0118
 IR Inten    --      6.5907                 1.0316                18.0639

                     67                     68                     69
                      A                      A                      A
 Frequencies --   1726.4499              1733.2305              2957.6670
 Red. masses --      1.0778                 1.0725                 1.0818
 Frc consts  --      1.8928                 1.8983                 5.5758
 IR Inten    --    134.1912                67.7177                24.3107

                     70                     71                     72
                      A                      A                      A
 Frequencies --   2981.0601              2990.0327              3003.2242
 Red. masses --      1.0821                 1.0827                 1.0845
 Frc consts  --      5.6659                 5.7029                 5.7633
 IR Inten    --      2.6424                40.5192                31.9267

                     73                     74                     75
                      A                      A                      A
 Frequencies --   3024.0882              3047.1511              3127.1923
 Red. masses --      1.0855                 1.0673                 1.0996
 Frc consts  --      5.8486                 5.8390                 6.3354
 IR Inten    --    104.6300                39.7367                19.0951

                     76                     77                     78
                      A                      A                      A
 Frequencies --   3330.7273              3438.5975              3500.4855
 Red. masses --      1.0678                 1.0619                 1.0585
 Frc consts  --      6.9797                 7.3980                 7.6415
 IR Inten    --    412.9887              1111.7349               550.4854

                     79                     80                     81
                      A                      A                      A
 Frequencies --   3658.1116              3722.5420              3732.2494
 Red. masses --      1.0656                 1.0656                 1.0657
 Frc consts  --      8.4016                 8.7002                 8.7466
 IR Inten    --    141.4419                36.0342                39.5274

                     82                     83                     84
                      A                      A                      A
 Frequencies --   3738.8710              3789.6673              3794.4982
 Red. masses --      1.0663                 1.0690                 1.0682
 Frc consts  --      8.7822                 9.0451                 9.0613
 IR Inten    --     24.2288                58.4238                55.1536

 - Thermochemistry -
 -------------------
 Temperature   298.150 Kelvin.  Pressure   1.00000 Atm.
 Atom     1 has atomic number  6 and mass  12.00000

 Molecular mass:   216.08452 amu.
 Principal axes and moments of inertia in atomic units:
                           1         2         3
     Eigenvalues --  2649.493823632.731806029.00215
           X            0.99986   0.01649  -0.00189
           Y           -0.01650   0.99986  -0.00239
           Z            0.00185   0.00242   1.00000
 This molecule is an asymmetric top.
 Rotational symmetry number  1.
 Warning -- assumption of classical behavior for rotation
           may cause significant error
 Rotational temperatures (Kelvin)      0.03269     0.02384     0.01437
 Rotational constants (GHZ):           0.68116     0.49680     0.29934
 Zero-point vibrational energy     653178.3 (Joules/Mol)
                                  156.11336 (Kcal/Mol)
 Warning -- explicit consideration of  29 degrees of freedom as
           vibrations may cause significant error
 Vibrational temperatures:     37.08    62.40    96.51   111.72   157.66
          (Kelvin)            175.83   232.57   251.78   292.25   316.37
                              353.90   354.70   387.49   397.37   439.88
                              462.85   475.92   493.99   531.15   561.71
                              584.14   594.02   606.93   627.61   645.67
                              697.09   754.58   802.66   853.21   896.80
                              914.01   966.29  1022.09  1137.60  1302.21
                             1344.89  1463.88  1479.97  1492.97  1510.53
                             1537.59  1556.71  1570.92  1611.46  1634.45
                             1643.18  1651.91  1713.88  1769.86  1772.73
                             1829.73  1844.89  1890.17  1935.53  1956.62
                             1969.72  1991.42  2003.65  2022.87  2050.36
                             2057.69  2091.43  2098.19  2129.63  2211.98
                             2245.71  2483.97  2493.73  4255.42  4289.08
                             4301.98  4320.96  4350.98  4384.17  4499.33
                             4792.17  4947.37  5036.41  5263.20  5355.90
                             5369.87  5379.39  5452.48  5459.43

 Zero-point correction=                           0.248782 (Hartree/Particle)
 Thermal correction to Energy=                    0.266155
 Thermal correction to Enthalpy=                  0.267100
 Thermal correction to Gibbs Free Energy=         0.203993
 Sum of electronic and zero-point Energies=           -839.756251
 Sum of electronic and thermal Energies=              -839.738878
 Sum of electronic and thermal Enthalpies=            -839.737934
 Sum of electronic and thermal Free Energies=         -839.801041

                     E (Thermal)             CV                S
                      KCal/Mol        Cal/Mol-Kelvin    Cal/Mol-Kelvin
 Total                  167.015             64.259            132.820
 Electronic               0.000              0.000              0.000
 Translational            0.889              2.981             42.015
 Rotational               0.889              2.981             32.429
 Vibrational            165.238             58.297             58.377
 Vibration     1          0.593              1.985              6.131
 Vibration     2          0.595              1.980              5.099
 Vibration     3          0.598              1.970              4.237
 Vibration     4          0.599              1.964              3.949
 Vibration     5          0.606              1.942              3.276
 Vibration     6          0.610              1.931              3.065
 Vibration     7          0.622              1.889              2.530
 Vibration     8          0.627              1.873              2.381
 Vibration     9          0.639              1.835              2.105
 Vibration    10          0.647              1.811              1.960
 Vibration    11          0.660              1.769              1.759
 Vibration    12          0.661              1.769              1.755
 Vibration    13          0.674              1.730              1.601
 Vibration    14          0.678              1.717              1.557
 Vibration    15          0.696              1.663              1.385
 Vibration    16          0.707              1.632              1.301
 Vibration    17          0.713              1.614              1.256
 Vibration    18          0.722              1.589              1.197
 Vibration    19          0.741              1.536              1.083
 Vibration    20          0.758              1.491              0.999
 Vibration    21          0.771              1.457              0.941
 Vibration    22          0.777              1.442              0.917
 Vibration    23          0.784              1.423              0.886
 Vibration    24          0.797              1.391              0.839
 Vibration    25          0.808              1.364              0.800
 Vibration    26          0.841              1.284              0.698
 Vibration    27          0.879              1.196              0.600
 Vibration    28          0.913              1.122              0.528
 Vibration    29          0.951              1.047              0.462

 Normal termination of Gaussian 09 at Sun Jan 15 12:46:37 2017.
