 Gaussian 09, Revision E.01,
 Gaussian 09:  ES64L-G09RevE.01 30-Nov-2015

 ----------------------------------------------------------------------
 # opt=(calcfc,ts,noeigentest,maxcycle=1000,cartesian) b3lyp 6-31g(d) f
 req
 ----------------------------------------------------------------------

 ------------------------------------------
 ./2/glo_2w_beta_boat2_b3lyp_631Gd_iopt.out
 ------------------------------------------
 Symbolic Z-matrix:
 Charge =  0 Multiplicity = 1

 SCF Done:  E(RB3LYP) =  -840.000018473     A.U. after   13 cycles
 Optimization completed.
    -- Stationary point found.
 Normal termination of Gaussian 09 at Mon Jan 30 07:18:47 2017.

 --------------------------------------------------------------------
 #N Geom=AllCheck Guess=TCheck SCRF=Check GenChk RB3LYP/6-31G(d) Freq
 --------------------------------------------------------------------

 Structure from the checkpoint file:  "/scratch/10499779.yak.local/Gau-21873.chk"
 ------------------------------------------
 ./2/glo_2w_beta_boat2_b3lyp_631Gd_iopt.out
 ------------------------------------------
 Charge =  0 Multiplicity = 1

                         Standard orientation:
 ---------------------------------------------------------------------
 Center     Atomic      Atomic             Coordinates (Angstroms)
 Number     Number       Type             X           Y           Z
 ---------------------------------------------------------------------
      1          6           0       -0.261920   -0.936189   -1.055339
      2          8           0        0.493941    0.195060   -0.578839
      3          1           0        2.961971    0.658198   -0.198409
      4          1           0        1.669969   -2.021391    1.925761
      5          8           0        2.019499   -2.215561    1.043581
      6          1           0        2.628899   -1.472892    0.798161
      7          8           0        3.328280   -0.242942   -0.314199
      8          1           0        2.773830   -0.591632   -1.033289
      9          6           0       -1.518808    1.192782    0.477501
     10          6           0       -0.243638    1.408641   -0.396289
     11          1           0       -1.523878    1.922182    1.295541
     12          1           0       -0.564918    1.789111   -1.379519
     13          8           0       -2.722248    1.405033   -0.240739
     14          1           0       -2.906289    0.586573   -0.740939
     15          6           0        0.725082    2.388180    0.272621
     16          8           0        2.022033    2.419409   -0.318229
     17          1           0        0.888942    2.083010    1.310241
     18          1           0        0.268553    3.388540    0.285121
     19          1           0        1.929243    2.654409   -1.255549
     20          1           0        1.035879   -2.220360   -0.425649
     21          6           0       -1.377591   -1.282808   -0.026919
     22          1           0       -1.158571   -2.260699    0.418931
     23          6           0       -1.448870   -0.222108    1.092871
     24          1           0       -2.346940   -0.386728    1.698781
     25          8           0       -2.602481   -1.338147   -0.778279
     26          1           0       -3.288961   -1.727447   -0.212799
     27          8           0       -0.335820   -0.353149    1.972621
     28          1           0        0.447130   -0.311940    1.393471
     29          8           0        0.631209   -1.957680   -1.292769
     30          1           0       -0.735690   -0.676079   -2.011679
 ---------------------------------------------------------------------

 SCF Done:  E(RB3LYP) =  -840.000018473     A.U. after    1 cycles

 The electronic state is 1-A.
 Alpha  occ. eigenvalues --  -19.18704 -19.18096 -19.17567 -19.16094 -19.14985
 Alpha  occ. eigenvalues --  -19.14925 -19.14643 -19.13989 -10.29880 -10.25772
 Alpha  occ. eigenvalues --  -10.25675 -10.25654 -10.25388 -10.24980  -1.08739
 Alpha  occ. eigenvalues --   -1.05542  -1.04785  -1.03693  -1.02216  -1.01278
 Alpha  occ. eigenvalues --   -1.00448  -0.99186  -0.78910  -0.77644  -0.70319
 Alpha  occ. eigenvalues --   -0.66055  -0.64623  -0.59912  -0.56230  -0.55238
 Alpha  occ. eigenvalues --   -0.54282  -0.53000  -0.52473  -0.51316  -0.50445
 Alpha  occ. eigenvalues --   -0.47990  -0.46829  -0.45773  -0.45553  -0.43645
 Alpha  occ. eigenvalues --   -0.41447  -0.41309  -0.39987  -0.39615  -0.39050
 Alpha  occ. eigenvalues --   -0.38289  -0.36686  -0.35924  -0.35056  -0.33931
 Alpha  occ. eigenvalues --   -0.32034  -0.31613  -0.30693  -0.29770  -0.29452
 Alpha  occ. eigenvalues --   -0.28731  -0.27016  -0.25761
 Alpha virt. eigenvalues --    0.03207   0.04453   0.06331   0.08468   0.10043
 Alpha virt. eigenvalues --    0.10705   0.11056   0.11931   0.12647   0.13060
 Alpha virt. eigenvalues --    0.14518   0.14813   0.15879   0.16657   0.18419

 Mulliken charges:
               1
     1  C    0.346896
     2  O   -0.533526
     3  H    0.429717
     4  H    0.402609
     5  O   -0.826667
     6  H    0.431585
     7  O   -0.820668
     8  H    0.401370
     9  C    0.090780
    10  C    0.092161
    11  H    0.151961
    12  H    0.138632
    13  O   -0.654985
    14  H    0.413028
    15  C   -0.065477
    16  O   -0.611914
    17  H    0.168774
    18  H    0.151574
    19  H    0.403974
    20  H    0.444349
    21  C    0.035200
    22  H    0.159494
    23  C    0.082332
    24  H    0.141670
    25  O   -0.633549
    26  H    0.409407
    27  O   -0.653838
    28  H    0.402278
    29  O   -0.649284
    30  H    0.152116
 Sum of Mulliken charges =  -0.00000

 Dipole moment (field-independent basis, Debye):
    X=             -2.7063    Y=              1.6392    Z=              0.2625  Tot=              3.1749
 Quadrupole moment (field-independent basis, Debye-Ang):
   XX=            -92.5342   YY=            -84.0882   ZZ=            -83.0465
   XY=             12.1412   XZ=             -2.4617   YZ=             -7.0868

  Exact polarizability:  98.992   0.755  96.704   0.206  -1.004  85.112
 Approx polarizability: 134.027  -2.558 128.613   3.761  -0.721 127.765

 ******    1 imaginary frequencies (negative Signs) ******

                      1                      2                      3
                      A                      A                      A
 Frequencies --    -84.0716                46.9519                64.1999
 Red. masses --      2.3528                 6.3195                 6.3675
 Frc consts  --      0.0098                 0.0082                 0.0155
 IR Inten    --     83.0120                 4.7840                 8.9631

                      4                      5                      6
                      A                      A                      A
 Frequencies --     95.7887               114.2175               142.1703
 Red. masses --      6.7863                 5.9294                 3.9432
 Frc consts  --      0.0367                 0.0456                 0.0470
 IR Inten    --      4.6947                20.6210                 7.5992

                      7                      8                      9
                      A                      A                      A
 Frequencies --    147.5425               176.3957               188.6632
 Red. masses --      2.4209                 3.3605                 3.4175
 Frc consts  --      0.0311                 0.0616                 0.0717
 IR Inten    --     59.2490                15.0553                26.8194

                     10                     11                     12
                      A                      A                      A
 Frequencies --    228.3761               236.6486               263.1540
 Red. masses --      4.1702                 4.4063                 5.4461
 Frc consts  --      0.1281                 0.1454                 0.2222
 IR Inten    --     16.9515                 9.0373                 7.6466

                     13                     14                     15
                      A                      A                      A
 Frequencies --    269.2830               280.9505               286.7297
 Red. masses --      6.5108                 2.4842                 1.2817
 Frc consts  --      0.2782                 0.1155                 0.0621
 IR Inten    --      9.0164                74.3640                30.3194

                     16                     17                     18
                      A                      A                      A
 Frequencies --    298.5653               329.3538               344.2658
 Red. masses --      4.1466                 1.9529                 1.4490
 Frc consts  --      0.2178                 0.1248                 0.1012
 IR Inten    --     12.9347                90.4640               104.5476

                     19                     20                     21
                      A                      A                      A
 Frequencies --    374.3700               393.1362               421.5558
 Red. masses --      2.7100                 2.7848                 3.1931
 Frc consts  --      0.2238                 0.2536                 0.3343
 IR Inten    --     68.7201                 4.0192                92.8080

                     22                     23                     24
                      A                      A                      A
 Frequencies --    448.0826               474.7157               500.7375
 Red. masses --      6.7337                 1.0795                 3.8444
 Frc consts  --      0.7966                 0.1433                 0.5679
 IR Inten    --      2.9276               140.9444                17.3040

                     25                     26                     27
                      A                      A                      A
 Frequencies --    510.5454               551.8685               579.2449
 Red. masses --      6.2761                 4.2637                 5.2682
 Frc consts  --      0.9638                 0.7651                 1.0414
 IR Inten    --     11.8020                 0.6296                 9.5174

                     28                     29                     30
                      A                      A                      A
 Frequencies --    607.9195               622.5078               640.7063
 Red. masses --      1.0715                 2.2055                 1.2594
 Frc consts  --      0.2333                 0.5036                 0.3046
 IR Inten    --     62.3875                19.4435                56.3337

                     31                     32                     33
                      A                      A                      A
 Frequencies --    659.5218               715.3858               794.8586
 Red. masses --      1.1190                 1.0472                 1.0837
 Frc consts  --      0.2868                 0.3158                 0.4034
 IR Inten    --     85.7181                83.7192               346.7699

                     34                     35                     36
                      A                      A                      A
 Frequencies --    815.5412               862.1872               905.5048
 Red. masses --      3.7133                 3.8395                 2.2721
 Frc consts  --      1.4551                 1.6816                 1.0976
 IR Inten    --     26.2576                 3.8654                 9.6489

                     37                     38                     39
                      A                      A                      A
 Frequencies --    951.8493               994.7391              1000.5870
 Red. masses --      3.2012                 1.1528                 2.6723
 Frc consts  --      1.7088                 0.6721                 1.5763
 IR Inten    --     35.2281                84.8653                94.2055

                     40                     41                     42
                      A                      A                      A
 Frequencies --   1034.7001              1042.5975              1069.3335
 Red. masses --      3.8517                 2.9275                 5.1040
 Frc consts  --      2.4296                 1.8749                 3.4386
 IR Inten    --    177.9132               115.3085                44.8492

                     43                     44                     45
                      A                      A                      A
 Frequencies --   1082.8037              1092.8293              1104.3379
 Red. masses --      4.6151                 3.1118                 2.6928
 Frc consts  --      3.1881                 2.1896                 1.9349
 IR Inten    --     83.0602                89.1590                 7.1787

                     46                     47                     48
                      A                      A                      A
 Frequencies --   1110.9127              1134.1178              1184.2466
 Red. masses --      2.5766                 3.3619                 2.5225
 Frc consts  --      1.8735                 2.5477                 2.0843
 IR Inten    --     26.0587                 4.0152               145.4947

                     49                     50                     51
                      A                      A                      A
 Frequencies --   1226.6445              1232.3094              1244.7118
 Red. masses --      1.2690                 1.4474                 1.3545
 Frc consts  --      1.1250                 1.2950                 1.2364
 IR Inten    --     43.9366                19.3366                52.1259

                     52                     53                     54
                      A                      A                      A
 Frequencies --   1286.2908              1306.4239              1331.2365
 Red. masses --      1.2256                 1.2303                 1.2949
 Frc consts  --      1.1948                 1.2372                 1.3521
 IR Inten    --     15.3105                 9.3321                 1.5127

                     55                     56                     57
                      A                      A                      A
 Frequencies --   1347.2842              1353.1782              1376.9894
 Red. masses --      1.2435                 1.3010                 1.3588
 Frc consts  --      1.3298                 1.4036                 1.5180
 IR Inten    --      2.9441                15.2786                10.2042

                     58                     59                     60
                      A                      A                      A
 Frequencies --   1381.8343              1403.5126              1420.1179
 Red. masses --      1.2758                 1.4218                 1.3969
 Frc consts  --      1.4353                 1.6502                 1.6598
 IR Inten    --     10.0419                 4.3561                16.1579

                     61                     62                     63
                      A                      A                      A
 Frequencies --   1444.6258              1447.7018              1469.5278
 Red. masses --      1.3266                 1.3652                 1.2977
 Frc consts  --      1.6312                 1.6857                 1.6511
 IR Inten    --     31.7472                22.6483                45.3636

                     64                     65                     66
                      A                      A                      A
 Frequencies --   1488.4642              1518.2573              1531.6831
 Red. masses --      1.1923                 1.1708                 1.0823
 Frc consts  --      1.5563                 1.5901                 1.4960
 IR Inten    --     67.4335                90.9064                 2.8524

                     67                     68                     69
                      A                      A                      A
 Frequencies --   1729.2068              1754.3478              3002.7046
 Red. masses --      1.0744                 1.0734                 1.0847
 Frc consts  --      1.8928                 1.9465                 5.7619
 IR Inten    --     68.2061               126.8688                31.1546

                     70                     71                     72
                      A                      A                      A
 Frequencies --   3035.5206              3048.3661              3063.1566
 Red. masses --      1.0686                 1.0867                 1.0867
 Frc consts  --      5.8013                 5.9498                 6.0076
 IR Inten    --     37.9182                39.2089                36.7364

                     73                     74                     75
                      A                      A                      A
 Frequencies --   3069.7008              3082.2365              3121.2479
 Red. masses --      1.0859                 1.0881                 1.0975
 Frc consts  --      6.0290                 6.0906                 6.2997
 IR Inten    --     35.9405                40.0073                17.2049

                     76                     77                     78
                      A                      A                      A
 Frequencies --   3333.1538              3409.1793              3611.6198
 Red. masses --      1.0669                 1.0628                 1.0554
 Frc consts  --      6.9836                 7.2781                 8.1110
 IR Inten    --    387.7258               594.5698               208.0518

                     79                     80                     81
                      A                      A                      A
 Frequencies --   3625.8788              3668.1391              3737.1191
 Red. masses --      1.0661                 1.0651                 1.0661
 Frc consts  --      8.2582                 8.4433                 8.7727
 IR Inten    --    146.3109                79.6413                24.0338

                     82                     83                     84
                      A                      A                      A
 Frequencies --   3740.3643              3752.8034              3804.2648
 Red. masses --      1.0662                 1.0714                 1.0688
 Frc consts  --      8.7890                 8.8904                 9.1138
 IR Inten    --     27.6385                69.8080                52.9238

 - Thermochemistry -
 -------------------
 Temperature   298.150 Kelvin.  Pressure   1.00000 Atm.
 Atom     1 has atomic number  6 and mass  12.00000

 Molecular mass:   216.08452 amu.
 Principal axes and moments of inertia in atomic units:
                           1         2         3
     Eigenvalues --  2391.876953118.193874216.46377
           X            0.99992   0.01251  -0.00093
           Y           -0.01252   0.99984  -0.01289
           Z            0.00077   0.01290   0.99992
 This molecule is an asymmetric top.
 Rotational symmetry number  1.
 Warning -- assumption of classical behavior for rotation
           may cause significant error
 Rotational temperatures (Kelvin)      0.03621     0.02778     0.02054
 Rotational constants (GHZ):           0.75453     0.57878     0.42802
    1 imaginary frequencies ignored.
 Zero-point vibrational energy     655520.7 (Joules/Mol)
                                  156.67321 (Kcal/Mol)
 Warning -- explicit consideration of  27 degrees of freedom as
           vibrations may cause significant error
 Vibrational temperatures:     67.55    92.37   137.82   164.33   204.55
          (Kelvin)            212.28   253.79   271.44   328.58   340.48
                              378.62   387.44   404.22   412.54   429.57
                              473.87   495.32   538.63   565.63   606.52
                              644.69   683.01   720.45   734.56   794.01
                              833.40   874.66   895.65   921.83   948.90
                             1029.28  1143.62  1173.38  1240.49  1302.82
                             1369.50  1431.21  1439.62  1488.70  1500.06
                             1538.53  1557.91  1572.34  1588.89  1598.35
                             1631.74  1703.86  1764.87  1773.02  1790.86
                             1850.68  1879.65  1915.35  1938.44  1946.92
                             1981.18  1988.15  2019.34  2043.23  2078.49
                             2082.92  2114.32  2141.57  2184.43  2203.75
                             2487.94  2524.11  4320.22  4367.43  4385.91
                             4407.19  4416.61  4434.65  4490.77  4795.66
                             4905.04  5196.31  5216.82  5277.63  5376.87
                             5381.54  5399.44  5473.48

 Zero-point correction=                           0.249675 (Hartree/Particle)
 Thermal correction to Energy=                    0.265802
 Thermal correction to Enthalpy=                  0.266747
 Thermal correction to Gibbs Free Energy=         0.207631
 Sum of electronic and zero-point Energies=           -839.750344
 Sum of electronic and thermal Energies=              -839.734216
 Sum of electronic and thermal Enthalpies=            -839.733272
 Sum of electronic and thermal Free Energies=         -839.792387

                     E (Thermal)             CV                S
                      KCal/Mol        Cal/Mol-Kelvin    Cal/Mol-Kelvin
 Total                  166.793             61.439            124.419
 Electronic               0.000              0.000              0.000
 Translational            0.889              2.981             42.015
 Rotational               0.889              2.981             31.820
 Vibrational            165.016             55.477             50.584
 Vibration     1          0.595              1.979              4.942
 Vibration     2          0.597              1.971              4.324
 Vibration     3          0.603              1.952              3.538
 Vibration     4          0.607              1.938              3.196
 Vibration     5          0.616              1.911              2.774
 Vibration     6          0.617              1.905              2.704
 Vibration     7          0.628              1.871              2.366
 Vibration     8          0.633              1.855              2.241
 Vibration     9          0.651              1.798              1.892
 Vibration    10          0.656              1.785              1.828
 Vibration    11          0.670              1.740              1.641
 Vibration    12          0.674              1.730              1.601
 Vibration    13          0.681              1.709              1.528
 Vibration    14          0.684              1.698              1.493
 Vibration    15          0.692              1.676              1.425
 Vibration    16          0.712              1.617              1.263
 Vibration    17          0.723              1.587              1.192
 Vibration    18          0.745              1.525              1.062
 Vibration    19          0.760              1.485              0.988
 Vibration    20          0.784              1.423              0.887
 Vibration    21          0.807              1.365              0.802
 Vibration    22          0.831              1.306              0.724
 Vibration    23          0.856              1.248              0.656
 Vibration    24          0.866              1.227              0.632
 Vibration    25          0.907              1.136              0.540
 Vibration    26          0.936              1.076              0.487
 Vibration    27          0.967              1.015              0.436

 Optimization completed.
    -- Stationary point found.
 Normal termination of Gaussian 09 at Mon Jan 30 07:39:19 2017.
