 Gaussian 09, Revision E.01,
 Gaussian 09:  ES64L-G09RevE.01 30-Nov-2015

 ----------------------------------------------------------------------
 # opt=(calcfc,ts,noeigentest,maxcycle=1000,cartesian) b3lyp 6-31g(d) f
 req
 ----------------------------------------------------------------------

 -------------------------------------------
 ./2/glo_2w_alpha_boat2_b3lyp_631Gd_iopt.out
 -------------------------------------------
 Symbolic Z-matrix:
 Charge =  0 Multiplicity = 1

 SCF Done:  E(RB3LYP) =  -839.992143983     A.U. after   14 cycles
 Optimization completed.
    -- Stationary point found.
 Normal termination of Gaussian 09 at Mon Jan 30 07:18:06 2017.

 --------------------------------------------------------------------
 #N Geom=AllCheck Guess=TCheck SCRF=Check GenChk RB3LYP/6-31G(d) Freq
 --------------------------------------------------------------------

 Structure from the checkpoint file:  "/scratch/10499782.yak.local/Gau-5809.chk"
 -------------------------------------------
 ./2/glo_2w_alpha_boat2_b3lyp_631Gd_iopt.out
 -------------------------------------------
 Charge =  0 Multiplicity = 1

                         Standard orientation:
 ---------------------------------------------------------------------
 Center     Atomic      Atomic             Coordinates (Angstroms)
 Number     Number       Type             X           Y           Z
 ---------------------------------------------------------------------
      1          1           0        0.010611    0.563011   -1.377139
      2          6           0       -0.092538    0.953471   -0.351479
      3          6           0       -2.168739   -0.052097    0.730891
      4          6           0        0.003130   -1.341149    0.294091
      5          6           0       -1.563750   -1.389558    0.250871
      6          8           0        0.466371    0.012141    0.550441
      7          6           0       -1.611378    1.131772   -0.077959
      8          1           0       -3.249619   -0.090557    0.536871
      9          1           0       -1.886301   -2.184128    0.935091
     10          1           0       -1.800757    2.043842    0.505531
     11          6           0        0.675563    2.265640   -0.237999
     12          1           0        0.689523    2.596240    0.804951
     13          1           0        0.153693    3.037451   -0.827859
     14          8           0        2.042013    2.176169   -0.637829
     15          1           0        2.076862    1.761019   -1.514959
     16          8           0       -2.105300   -1.746737   -1.002669
     17          1           0       -2.020430   -0.984108   -1.599769
     18          8           0       -1.899489    0.223032    2.100971
     19          1           0       -2.347089   -0.456457    2.628551
     20          8           0       -2.347308    1.161273   -1.308999
     21          1           0       -2.061778    1.933803   -1.821279
     22          1           0        0.373450   -1.873319    1.180261
     23          8           0        0.516170   -1.834929   -0.882479
     24          1           0        1.505400   -1.879520   -0.788909
     25          1           0        3.170232    1.097689    0.596211
     26          1           0        3.611349   -2.530872   -0.093299
     27          8           0        3.219350   -1.766462   -0.540239
     28          1           0        3.351540   -1.005292    0.087011
     29          8           0        3.199261    0.323809    1.192881
     30          1           0        2.241061    0.176359    1.321571
 ---------------------------------------------------------------------

 SCF Done:  E(RB3LYP) =  -839.992143983     A.U. after    1 cycles

 The electronic state is 1-A.
 Alpha  occ. eigenvalues --  -19.18025 -19.17581 -19.16354 -19.15632 -19.13800
 Alpha  occ. eigenvalues --  -19.13630 -19.13481 -19.12905 -10.28048 -10.25852
 Alpha  occ. eigenvalues --  -10.25540 -10.25252 -10.24455 -10.23715  -1.07239
 Alpha  occ. eigenvalues --   -1.04834  -1.04552  -1.02868  -1.01197  -1.00312
 Alpha  occ. eigenvalues --   -0.99426  -0.98289  -0.78957  -0.76393  -0.70388
 Alpha  occ. eigenvalues --   -0.64476  -0.63903  -0.57228  -0.56043  -0.55045
 Alpha  occ. eigenvalues --   -0.53016  -0.51777  -0.50776  -0.50521  -0.50471
 Alpha  occ. eigenvalues --   -0.49079  -0.45886  -0.44888  -0.44440  -0.42923
 Alpha  occ. eigenvalues --   -0.41123  -0.40620  -0.39808  -0.39084  -0.37759
 Alpha  occ. eigenvalues --   -0.37051  -0.35863  -0.35676  -0.34627  -0.31361
 Alpha  occ. eigenvalues --   -0.30426  -0.29983  -0.29439  -0.28816  -0.28666
 Alpha  occ. eigenvalues --   -0.27669  -0.27536  -0.24602
 Alpha virt. eigenvalues --    0.03315   0.04556   0.06225   0.07326   0.09911
 Alpha virt. eigenvalues --    0.10244   0.10815   0.12334   0.13685   0.14001
 Alpha virt. eigenvalues --    0.14955   0.15865   0.17015   0.17726   0.17979

 Mulliken charges:
               1
     1  H    0.134390
     2  C    0.107332
     3  C    0.110833
     4  C    0.332661
     5  C    0.060756
     6  O   -0.523561
     7  C    0.070267
     8  H    0.151585
     9  H    0.130900
    10  H    0.147886
    11  C   -0.061149
    12  H    0.178062
    13  H    0.125266
    14  O   -0.621024
    15  H    0.406605
    16  O   -0.619211
    17  H    0.410826
    18  O   -0.629398
    19  H    0.396911
    20  O   -0.635566
    21  H    0.399041
    22  H    0.118515
    23  O   -0.636291
    24  H    0.440611
    25  H    0.421930
    26  H    0.394224
    27  O   -0.828826
    28  H    0.421699
    29  O   -0.829689
    30  H    0.424414
 Sum of Mulliken charges =  -0.00000

 Dipole moment (field-independent basis, Debye):
    X=             -1.0524    Y=              2.3553    Z=              0.2030  Tot=              2.5877
 Quadrupole moment (field-independent basis, Debye-Ang):
   XX=            -89.5080   YY=            -79.1132   ZZ=            -80.8991
   XY=             -7.2342   XZ=             -6.3887   YZ=            -15.3148

  Exact polarizability:  98.662  -1.087  96.669   0.138  -4.215  86.773
 Approx polarizability: 124.305   0.200 128.787   4.382  -1.902 131.600

 ******    1 imaginary frequencies (negative Signs) ******

                      1                      2                      3
                      A                      A                      A
 Frequencies --    -19.1616                42.0097                66.3463
 Red. masses --      5.8090                 4.9317                 6.0091
 Frc consts  --      0.0013                 0.0051                 0.0156
 IR Inten    --      3.7853                 1.6087                 0.3106

                      4                      5                      6
                      A                      A                      A
 Frequencies --     92.0663               107.9321               138.1787
 Red. masses --      4.4236                 5.3657                 4.1429
 Frc consts  --      0.0221                 0.0368                 0.0466
 IR Inten    --      7.5062                 0.2447                 3.9084

                      7                      8                      9
                      A                      A                      A
 Frequencies --    154.4305               194.7208               203.8979
 Red. masses --      5.3855                 5.2875                 3.5237
 Frc consts  --      0.0757                 0.1181                 0.0863
 IR Inten    --      3.4060                 8.6893                 6.5797

                     10                     11                     12
                      A                      A                      A
 Frequencies --    216.3509               224.0089               236.4672
 Red. masses --      2.8679                 3.8844                 1.7004
 Frc consts  --      0.0791                 0.1148                 0.0560
 IR Inten    --     12.8244                 8.0990                76.7050

                     13                     14                     15
                      A                      A                      A
 Frequencies --    254.9370               276.8666               280.9343
 Red. masses --      1.8596                 1.9365                 2.1627
 Frc consts  --      0.0712                 0.0875                 0.1006
 IR Inten    --     40.1488                10.2097                54.5652

                     16                     17                     18
                      A                      A                      A
 Frequencies --    290.8989               301.9759               328.4846
 Red. masses --      2.6581                 1.0947                 1.2986
 Frc consts  --      0.1325                 0.0588                 0.0826
 IR Inten    --     13.8260                24.1948                67.7174

                     19                     20                     21
                      A                      A                      A
 Frequencies --    342.6264               349.8459               392.9971
 Red. masses --      1.7842                 2.8128                 2.1987
 Frc consts  --      0.1234                 0.2028                 0.2001
 IR Inten    --     89.6345                51.0500                96.4868

                     22                     23                     24
                      A                      A                      A
 Frequencies --    406.4246               431.2242               432.5290
 Red. masses --      2.1721                 3.3917                 1.1483
 Frc consts  --      0.2114                 0.3716                 0.1266
 IR Inten    --    151.9916                60.4339                61.0554

                     25                     26                     27
                      A                      A                      A
 Frequencies --    466.2588               480.2329               525.5348
 Red. masses --      5.2962                 4.9580                 6.3397
 Frc consts  --      0.6784                 0.6737                 1.0316
 IR Inten    --      4.4750                10.4543                32.6651

                     28                     29                     30
                      A                      A                      A
 Frequencies --    569.2185               584.3268               612.8287
 Red. masses --      1.1348                 4.9833                 3.3829
 Frc consts  --      0.2166                 1.0025                 0.7485
 IR Inten    --     42.5193                 6.1013                27.5943

                     31                     32                     33
                      A                      A                      A
 Frequencies --    694.6142               775.3164               781.9686
 Red. masses --      5.5817                 2.3271                 1.2860
 Frc consts  --      1.5867                 0.8242                 0.4633
 IR Inten    --      6.7530                24.6940               193.8461

                     34                     35                     36
                      A                      A                      A
 Frequencies --    862.3206               871.0935               916.8289
 Red. masses --      2.3822                 4.2570                 1.9389
 Frc consts  --      1.0437                 1.9032                 0.9603
 IR Inten    --     13.6540                28.6769                22.7467

                     37                     38                     39
                      A                      A                      A
 Frequencies --    927.2980               989.4637              1008.5686
 Red. masses --      1.3138                 3.4139                 1.0595
 Frc consts  --      0.6656                 1.9693                 0.6350
 IR Inten    --    129.7787               123.5081               100.7660

                     40                     41                     42
                      A                      A                      A
 Frequencies --   1041.6972              1054.8792              1070.3057
 Red. masses --      3.9845                 4.1571                 3.2891
 Frc consts  --      2.5475                 2.7255                 2.2199
 IR Inten    --    109.2000               115.8501               104.5470

                     43                     44                     45
                      A                      A                      A
 Frequencies --   1082.7156              1104.6205              1109.8844
 Red. masses --      2.6031                 3.5870                 3.0278
 Frc consts  --      1.7979                 2.5787                 2.1975
 IR Inten    --     53.0966                94.8690                 8.1759

                     46                     47                     48
                      A                      A                      A
 Frequencies --   1121.2209              1144.0513              1188.4245
 Red. masses --      2.6314                 3.1698                 3.5772
 Frc consts  --      1.9490                 2.4444                 2.9767
 IR Inten    --     17.2091                38.7192                82.3151

                     49                     50                     51
                      A                      A                      A
 Frequencies --   1217.5682              1227.0410              1256.9223
 Red. masses --      1.1776                 1.3297                 1.2286
 Frc consts  --      1.0285                 1.1796                 1.1436
 IR Inten    --     47.4954                48.1761                17.8976

                     52                     53                     54
                      A                      A                      A
 Frequencies --   1290.9772              1311.7639              1333.4133
 Red. masses --      1.2236                 1.2200                 1.3394
 Frc consts  --      1.2015                 1.2368                 1.4031
 IR Inten    --     11.4634                48.2906                15.0190

                     55                     56                     57
                      A                      A                      A
 Frequencies --   1349.3608              1378.3416              1381.0223
 Red. masses --      1.2930                 1.2276                 1.2975
 Frc consts  --      1.3871                 1.3741                 1.4580
 IR Inten    --     27.2071                11.9112                24.2530

                     58                     59                     60
                      A                      A                      A
 Frequencies --   1392.4272              1399.7398              1414.3084
 Red. masses --      1.2354                 1.3526                 1.2326
 Frc consts  --      1.4113                 1.5614                 1.4526
 IR Inten    --      1.2175                14.3824                30.4579

                     61                     62                     63
                      A                      A                      A
 Frequencies --   1430.1202              1447.1496              1465.4905
 Red. masses --      1.3761                 1.4067                 1.5238
 Frc consts  --      1.6582                 1.7357                 1.9282
 IR Inten    --     25.2989                32.8011                12.2193

                     64                     65                     66
                      A                      A                      A
 Frequencies --   1472.0338              1522.3425              1523.9180
 Red. masses --      1.2480                 1.0891                 1.3218
 Frc consts  --      1.5934                 1.4871                 1.8085
 IR Inten    --     59.3410                 2.1973                27.1027

                     67                     68                     69
                      A                      A                      A
 Frequencies --   1743.6598              1776.5833              2992.7837
 Red. masses --      1.0734                 1.0782                 1.0787
 Frc consts  --      1.9227                 2.0049                 5.6923
 IR Inten    --     65.6738               241.8044                21.3368

                     70                     71                     72
                      A                      A                      A
 Frequencies --   3000.4302              3033.1560              3035.2647
 Red. masses --      1.0753                 1.0850                 1.0861
 Frc consts  --      5.7038                 5.8813                 5.8951
 IR Inten    --     60.1690                31.8378                17.4513

                     73                     74                     75
                      A                      A                      A
 Frequencies --   3040.3255              3061.9498              3118.7871
 Red. masses --      1.0860                 1.0872                 1.0929
 Frc consts  --      5.9147                 6.0056                 6.2633
 IR Inten    --     53.3636                81.3597                14.0510

                     76                     77                     78
                      A                      A                      A
 Frequencies --   3267.2736              3366.0170              3639.1637
 Red. masses --      1.0664                 1.0640                 1.0471
 Frc consts  --      6.7075                 7.1030                 8.1705
 IR Inten    --    565.5331               957.9443               264.2163

                     79                     80                     81
                      A                      A                      A
 Frequencies --   3679.8796              3713.4333              3733.9447
 Red. masses --      1.0775                 1.0662                 1.0661
 Frc consts  --      8.5970                 8.6628                 8.7577
 IR Inten    --    146.9424                61.0623                21.1514

                     82                     83                     84
                      A                      A                      A
 Frequencies --   3744.0502              3747.0714              3803.2953
 Red. masses --      1.0665                 1.0664                 1.0669
 Frc consts  --      8.8081                 8.8214                 9.0930
 IR Inten    --      8.2075                20.2318                39.1128

 - Thermochemistry -
 -------------------
 Temperature   298.150 Kelvin.  Pressure   1.00000 Atm.
 Atom     1 has atomic number  1 and mass   1.00783

 Molecular mass:   216.08452 amu.
 Principal axes and moments of inertia in atomic units:
                           1         2         3
     Eigenvalues --  2264.188533646.628334485.56001
           X            0.99986  -0.01659  -0.00326
           Y            0.01647   0.99933  -0.03264
           Z            0.00380   0.03258   0.99946
 This molecule is an asymmetric top.
 Rotational symmetry number  1.
 Warning -- assumption of classical behavior for rotation
           may cause significant error
 Rotational temperatures (Kelvin)      0.03825     0.02375     0.01931
 Rotational constants (GHZ):           0.79708     0.49491     0.40234
    1 imaginary frequencies ignored.
 Zero-point vibrational energy     652328.7 (Joules/Mol)
                                  155.91029 (Kcal/Mol)
 Warning -- explicit consideration of  29 degrees of freedom as
           vibrations may cause significant error
 Vibrational temperatures:     60.44    95.46   132.46   155.29   198.81
          (Kelvin)            222.19   280.16   293.36   311.28   322.30
                              340.22   366.80   398.35   404.20   418.54
                              434.48   472.62   492.96   503.35   565.43
                              584.75   620.43   622.31   670.84   690.95
                              756.13   818.98   840.71   881.72   999.39
                             1115.51  1125.08  1240.69  1253.31  1319.11
                             1334.17  1423.62  1451.10  1498.77  1517.73
                             1539.93  1557.78  1589.30  1596.87  1613.18
                             1646.03  1709.88  1751.81  1765.44  1808.43
                             1857.43  1887.33  1918.48  1941.43  1983.12
                             1986.98  2003.39  2013.91  2034.87  2057.62
                             2082.12  2108.51  2117.93  2190.31  2192.58
                             2508.73  2556.10  4305.94  4316.94  4364.03
                             4367.06  4374.34  4405.46  4487.23  4700.87
                             4842.94  5235.94  5294.52  5342.80  5372.31
                             5386.85  5391.19  5472.09

 Zero-point correction=                           0.248459 (Hartree/Particle)
 Thermal correction to Energy=                    0.265082
 Thermal correction to Enthalpy=                  0.266026
 Thermal correction to Gibbs Free Energy=         0.205839
 Sum of electronic and zero-point Energies=           -839.743685
 Sum of electronic and thermal Energies=              -839.727062
 Sum of electronic and thermal Enthalpies=            -839.726118
 Sum of electronic and thermal Free Energies=         -839.786305

                     E (Thermal)             CV                S
                      KCal/Mol        Cal/Mol-Kelvin    Cal/Mol-Kelvin
 Total                  166.341             62.484            126.674
 Electronic               0.000              0.000              0.000
 Translational            0.889              2.981             42.015
 Rotational               0.889              2.981             31.982
 Vibrational            164.564             56.522             52.677
 Vibration     1          0.595              1.980              5.162
 Vibration     2          0.598              1.970              4.259
 Vibration     3          0.602              1.955              3.616
 Vibration     4          0.606              1.943              3.306
 Vibration     5          0.614              1.915              2.829
 Vibration     6          0.620              1.898              2.617
 Vibration     7          0.635              1.847              2.182
 Vibration     8          0.640              1.834              2.098
 Vibration     9          0.645              1.816              1.989
 Vibration    10          0.649              1.804              1.926
 Vibration    11          0.655              1.785              1.829
 Vibration    12          0.665              1.754              1.696
 Vibration    13          0.678              1.716              1.553
 Vibration    14          0.681              1.709              1.528
 Vibration    15          0.687              1.691              1.469
 Vibration    16          0.694              1.670              1.406
 Vibration    17          0.712              1.619              1.268
 Vibration    18          0.722              1.590              1.200
 Vibration    19          0.727              1.576              1.167
 Vibration    20          0.760              1.485              0.989
 Vibration    21          0.771              1.456              0.939
 Vibration    22          0.792              1.402              0.855
 Vibration    23          0.793              1.399              0.850
 Vibration    24          0.824              1.325              0.748
 Vibration    25          0.837              1.294              0.709
 Vibration    26          0.880              1.193              0.597
 Vibration    27          0.925              1.098              0.506
 Vibration    28          0.941              1.065              0.477
 Vibration    29          0.972              1.005              0.428

 Optimization completed.
    -- Stationary point found.
 Normal termination of Gaussian 09 at Mon Jan 30 07:36:30 2017.
