 Gaussian 09, Revision E.01,
 Gaussian 09:  ES64L-G09RevE.01 30-Nov-2015

 ----------------------------------------------------------------------
 # opt=(calcfc,ts,noeigentest,maxcycle=1000,cartesian) b3lyp 6-31g(d) f
 req
 ----------------------------------------------------------------------

 -------------------------------------------
 ./2/glo_1w_alpha_boat2_b3lyp_631Gd_iopt.out
 -------------------------------------------
 Symbolic Z-matrix:
 Charge =  0 Multiplicity = 1

 SCF Done:  E(RB3LYP) =  -839.983802888     A.U. after   14 cycles
 Optimization completed.
    -- Stationary point found.
 Normal termination of Gaussian 09 at Mon Jan 30 07:15:47 2017.

 --------------------------------------------------------------------
 #N Geom=AllCheck Guess=TCheck SCRF=Check GenChk RB3LYP/6-31G(d) Freq
 --------------------------------------------------------------------

 Structure from the checkpoint file:  "/scratch/10499780.yak.local/Gau-31839.chk"
 -------------------------------------------
 ./2/glo_1w_alpha_boat2_b3lyp_631Gd_iopt.out
 -------------------------------------------
 Charge =  0 Multiplicity = 1

                         Standard orientation:
 ---------------------------------------------------------------------
 Center     Atomic      Atomic             Coordinates (Angstroms)
 Number     Number       Type             X           Y           Z
 ---------------------------------------------------------------------
      1          1           0        1.229141    0.443358   -1.220602
      2          6           0        1.027121    0.714908   -0.176772
      3          6           0       -1.244959    0.365748    0.932158
      4          6           0        0.433351   -1.531502    0.476648
      5          6           0       -1.053629   -1.161532    0.776588
      6          8           0        1.309361   -0.415982    0.664858
      7          6           0       -0.449949    1.182168   -0.088372
      8          1           0       -2.308529    0.584338    0.781728
      9          1           0       -1.326880   -1.611282    1.739388
     10          1           0       -0.477389    2.227898    0.238448
     11          6           0        1.998541    1.809928    0.242588
     12          1           0        3.027071    1.418798    0.232908
     13          1           0        1.760191    2.132818    1.265548
     14          8           0        1.830821    2.861758   -0.704542
     15          1           0        2.276071    3.651668   -0.365222
     16          8           0       -1.931150   -1.709302   -0.195802
     17          1           0       -1.397350   -1.846062   -0.999822
     18          8           0       -0.791429    0.804888    2.215068
     19          1           0       -1.467849    0.558208    2.863678
     20          8           0       -1.104709    1.055938   -1.356192
     21          1           0       -0.664409    1.670308   -1.964872
     22          1           0        0.809450   -2.262272    1.202258
     23          8           0        0.504180   -2.028112   -0.827242
     24          1           0        1.445080   -2.273002   -0.989052
     25          1           0        3.685810   -2.688862   -0.039902
     26          8           0        3.239840   -2.033862   -0.598052
     27          1           0        2.939141   -1.333142    0.016108
     28          8           0       -3.941299    0.315838   -0.914962
     29          1           0       -3.179409    0.786288   -1.295222
     30          1           0       -3.537899   -0.546702   -0.707522
 ---------------------------------------------------------------------

 SCF Done:  E(RB3LYP) =  -839.983802888     A.U. after    1 cycles

 The electronic state is 1-A.
 Alpha  occ. eigenvalues --  -19.17613 -19.16948 -19.16435 -19.16174 -19.16016
 Alpha  occ. eigenvalues --  -19.15235 -19.14727 -19.08965 -10.29842 -10.24637
 Alpha  occ. eigenvalues --  -10.24481 -10.24304 -10.24288 -10.23529  -1.08549
 Alpha  occ. eigenvalues --   -1.03880  -1.03396  -1.02658  -1.02483  -1.02203
 Alpha  occ. eigenvalues --   -1.00406  -0.94952  -0.78527  -0.76743  -0.69788
 Alpha  occ. eigenvalues --   -0.64942  -0.62901  -0.57605  -0.55629  -0.55189
 Alpha  occ. eigenvalues --   -0.54489  -0.52285  -0.51419  -0.50203  -0.48931
 Alpha  occ. eigenvalues --   -0.46765  -0.46496  -0.45145  -0.43296  -0.42690
 Alpha  occ. eigenvalues --   -0.42010  -0.40612  -0.40389  -0.38639  -0.37387
 Alpha  occ. eigenvalues --   -0.36743  -0.34953  -0.34439  -0.33633  -0.32199
 Alpha  occ. eigenvalues --   -0.31546  -0.31317  -0.29891  -0.28964  -0.28336
 Alpha  occ. eigenvalues --   -0.27292  -0.25611  -0.24278
 Alpha virt. eigenvalues --    0.03977   0.04621   0.05978   0.07856   0.09781
 Alpha virt. eigenvalues --    0.10255   0.10965   0.12451   0.14082   0.14613
 Alpha virt. eigenvalues --    0.16033   0.16408   0.16996   0.18547   0.19033

 Mulliken charges:
               1
     1  H    0.153607
     2  C    0.133281
     3  C    0.062654
     4  C    0.322508
     5  C    0.113983
     6  O   -0.533800
     7  C    0.096188
     8  H    0.168411
     9  H    0.129173
    10  H    0.155916
    11  C   -0.070594
    12  H    0.132537
    13  H    0.156365
    14  O   -0.631194
    15  H    0.404823
    16  O   -0.648831
    17  H    0.432949
    18  O   -0.637285
    19  H    0.399625
    20  O   -0.644383
    21  H    0.409548
    22  H    0.130982
    23  O   -0.666963
    24  H    0.438665
    25  H    0.401464
    26  O   -0.800915
    27  H    0.423573
    28  O   -0.835611
    29  H    0.398166
    30  H    0.405157
 Sum of Mulliken charges =   0.00000

 Dipole moment (field-independent basis, Debye):
    X=              6.0036    Y=              0.4955    Z=              2.6811  Tot=              6.5937
 Quadrupole moment (field-independent basis, Debye-Ang):
   XX=            -96.4164   YY=            -70.7027   ZZ=            -79.9967
   XY=              0.2173   XZ=             -1.6526   YZ=             -4.3697

  Exact polarizability: 101.178   1.164  94.834   0.536  -2.352  85.491
 Approx polarizability: 128.255   1.964 123.434   3.987  -0.920 127.715

 ******    1 imaginary frequencies (negative Signs) ******

                      1                      2                      3
                      A                      A                      A
 Frequencies --    -34.6801                50.1821                67.1285
 Red. masses --      4.8687                 5.9992                 6.4510
 Frc consts  --      0.0035                 0.0089                 0.0171
 IR Inten    --      1.5626                 3.6203                10.2782

                      4                      5                      6
                      A                      A                      A
 Frequencies --     87.2171               102.3632               121.5277
 Red. masses --      6.7067                 6.1675                 5.3444
 Frc consts  --      0.0301                 0.0381                 0.0465
 IR Inten    --      1.5900                 3.5556                 5.4101

                      7                      8                      9
                      A                      A                      A
 Frequencies --    127.4346               151.6763               153.3141
 Red. masses --      4.6144                 5.4956                 4.7973
 Frc consts  --      0.0442                 0.0745                 0.0664
 IR Inten    --      2.0392                 3.5629                 9.2447

                     10                     11                     12
                      A                      A                      A
 Frequencies --    189.8110               200.9660               211.3224
 Red. masses --      1.8317                 6.4778                 1.7707
 Frc consts  --      0.0389                 0.1541                 0.0466
 IR Inten    --     18.2138                 3.2170                97.4934

                     13                     14                     15
                      A                      A                      A
 Frequencies --    224.4850               243.9411               260.9743
 Red. masses --      2.2370                 1.6897                 3.7616
 Frc consts  --      0.0664                 0.0592                 0.1509
 IR Inten    --     44.7920                31.7812                 0.8920

                     16                     17                     18
                      A                      A                      A
 Frequencies --    274.5083               321.8305               345.1596
 Red. masses --      1.0991                 1.0391                 1.4231
 Frc consts  --      0.0488                 0.0634                 0.0999
 IR Inten    --    123.4188                31.0178                61.7381

                     19                     20                     21
                      A                      A                      A
 Frequencies --    352.1437               375.0456               388.0926
 Red. masses --      1.6813                 3.2701                 1.4787
 Frc consts  --      0.1228                 0.2710                 0.1312
 IR Inten    --     36.8151                 7.9349                21.3873

                     22                     23                     24
                      A                      A                      A
 Frequencies --    389.2725               401.9076               421.0236
 Red. masses --      5.6888                 2.0885                 1.7394
 Frc consts  --      0.5079                 0.1988                 0.1817
 IR Inten    --     17.4568                61.3724               199.3163

                     25                     26                     27
                      A                      A                      A
 Frequencies --    474.0541               478.7860               509.7895
 Red. masses --      4.3053                 5.8083                 1.1328
 Frc consts  --      0.5700                 0.7845                 0.1735
 IR Inten    --      8.8928                13.6823                19.1641

                     28                     29                     30
                      A                      A                      A
 Frequencies --    533.5580               563.2062               630.4400
 Red. masses --      4.6290                 5.1282                 5.4267
 Frc consts  --      0.7764                 0.9584                 1.2708
 IR Inten    --     32.0456                 2.3464                11.6433

                     31                     32                     33
                      A                      A                      A
 Frequencies --    659.1822               674.2934               678.0417
 Red. masses --      1.1670                 1.7602                 1.6031
 Frc consts  --      0.2988                 0.4715                 0.4342
 IR Inten    --    246.9281                97.2058               227.2303

                     34                     35                     36
                      A                      A                      A
 Frequencies --    799.6240               830.6347               841.8248
 Red. masses --      2.7348                 1.2462                 2.7659
 Frc consts  --      1.0302                 0.5066                 1.1549
 IR Inten    --     25.3522                87.9971                 9.1495

                     37                     38                     39
                      A                      A                      A
 Frequencies --    898.0732               957.0272              1004.4495
 Red. masses --      3.3874                 2.8218                 2.4574
 Frc consts  --      1.6097                 1.5227                 1.4607
 IR Inten    --     22.0600                 0.9935                41.9662

                     40                     41                     42
                      A                      A                      A
 Frequencies --   1042.2930              1076.0317              1077.5252
 Red. masses --      5.6256                 3.0713                 4.9201
 Frc consts  --      3.6008                 2.0952                 3.3657
 IR Inten    --    113.3662                46.7775               153.9767

                     43                     44                     45
                      A                      A                      A
 Frequencies --   1083.1411              1096.6819              1107.0508
 Red. masses --      5.6199                 2.9226                 2.2731
 Frc consts  --      3.8846                 2.0710                 1.6414
 IR Inten    --    147.8531                92.3507                27.2438

                     46                     47                     48
                      A                      A                      A
 Frequencies --   1121.0115              1141.8646              1159.5681
 Red. masses --      3.5800                 2.4400                 4.3961
 Frc consts  --      2.6507                 1.8744                 3.4826
 IR Inten    --     35.3144                 4.2522                89.3071

                     49                     50                     51
                      A                      A                      A
 Frequencies --   1233.3952              1245.4358              1264.2666
 Red. masses --      1.1557                 1.2170                 1.1491
 Frc consts  --      1.0359                 1.1122                 1.0821
 IR Inten    --     45.0590                13.4008                35.3524

                     52                     53                     54
                      A                      A                      A
 Frequencies --   1270.5904              1282.3014              1339.1051
 Red. masses --      1.1477                 1.1523                 1.2328
 Frc consts  --      1.0917                 1.1163                 1.3025
 IR Inten    --     42.5640                20.0095                33.9790

                     55                     56                     57
                      A                      A                      A
 Frequencies --   1342.0279              1361.2893              1381.8298
 Red. masses --      1.3155                 1.3486                 1.2048
 Frc consts  --      1.3959                 1.4725                 1.3554
 IR Inten    --     18.7338                 9.3566                 2.0947

                     58                     59                     60
                      A                      A                      A
 Frequencies --   1395.9588              1410.4931              1421.1366
 Red. masses --      1.2213                 1.2202                 1.2943
 Frc consts  --      1.4022                 1.4303                 1.5401
 IR Inten    --     10.2597                 1.9691                30.8942

                     61                     62                     63
                      A                      A                      A
 Frequencies --   1430.1325              1470.0051              1472.0117
 Red. masses --      1.4494                 1.3207                 1.4152
 Frc consts  --      1.7466                 1.6815                 1.8067
 IR Inten    --      0.9541               109.6033                28.5939

                     64                     65                     66
                      A                      A                      A
 Frequencies --   1492.7846              1498.3476              1554.1620
 Red. masses --      1.5438                 1.4395                 1.0844
 Frc consts  --      2.0269                 1.9040                 1.5432
 IR Inten    --      7.6810                57.3793                 5.1295

                     67                     68                     69
                      A                      A                      A
 Frequencies --   1714.8429              1765.0765              3013.2161
 Red. masses --      1.0771                 1.0800                 1.0588
 Frc consts  --      1.8662                 1.9825                 5.6639
 IR Inten    --     53.5605               217.5277                55.4420

                     70                     71                     72
                      A                      A                      A
 Frequencies --   3042.0036              3049.7573              3064.0288
 Red. masses --      1.0866                 1.0906                 1.0889
 Frc consts  --      5.9243                 5.9764                 6.0232
 IR Inten    --     14.4414                 7.3031                50.5349

                     73                     74                     75
                      A                      A                      A
 Frequencies --   3065.1232              3070.0917              3075.5788
 Red. masses --      1.0880                 1.0944                 1.0881
 Frc consts  --      6.0225                 6.0773                 6.0641
 IR Inten    --     55.3161                55.7691                12.4209

                     76                     77                     78
                      A                      A                      A
 Frequencies --   3477.0183              3602.6782              3674.0459
 Red. masses --      1.0660                 1.0552                 1.0525
 Frc consts  --      7.5929                 8.0696                 8.3708
 IR Inten    --    347.9802               344.4110               143.7195

                     79                     80                     81
                      A                      A                      A
 Frequencies --   3682.3904              3743.3038              3753.9301
 Red. masses --      1.0603                 1.0670                 1.0770
 Frc consts  --      8.4710                 8.8093                 8.9421
 IR Inten    --     47.6322                49.7429                67.8723

                     82                     83                     84
                      A                      A                      A
 Frequencies --   3757.5642              3773.1546              3804.7111
 Red. masses --      1.0668                 1.0667                 1.0732
 Frc consts  --      8.8748                 8.9479                 9.1532
 IR Inten    --     19.0405                30.3447                87.7856

 - Thermochemistry -
 -------------------
 Temperature   298.150 Kelvin.  Pressure   1.00000 Atm.
 Atom     1 has atomic number  1 and mass   1.00783

 Molecular mass:   216.08452 amu.
 Principal axes and moments of inertia in atomic units:
                           1         2         3
     Eigenvalues --  2519.325733452.541644543.70830
           X            0.99996  -0.00845   0.00166
           Y            0.00846   0.99995  -0.00471
           Z           -0.00162   0.00472   0.99999
 This molecule is an asymmetric top.
 Rotational symmetry number  1.
 Warning -- assumption of classical behavior for rotation
           may cause significant error
 Rotational temperatures (Kelvin)      0.03438     0.02509     0.01906
 Rotational constants (GHZ):           0.71636     0.52273     0.39720
    1 imaginary frequencies ignored.
 Zero-point vibrational energy     651326.4 (Joules/Mol)
                                  155.67074 (Kcal/Mol)
 Warning -- explicit consideration of  28 degrees of freedom as
           vibrations may cause significant error
 Vibrational temperatures:     72.20    96.58   125.49   147.28   174.85
          (Kelvin)            183.35   218.23   220.58   273.10   289.14
                              304.05   322.98   350.98   375.48   394.96
                              463.04   496.61   506.66   539.61   558.38
                              560.08   578.25   605.76   682.06   688.87
                              733.47   767.67   810.33   907.06   948.42
                              970.16   975.55  1150.48  1195.10  1211.20
                             1292.13  1376.95  1445.18  1499.63  1548.17
                             1550.32  1558.40  1577.88  1592.80  1612.88
                             1642.89  1668.36  1774.58  1791.90  1819.00
                             1828.09  1844.94  1926.67  1930.88  1958.59
                             1988.14  2008.47  2029.38  2044.70  2057.64
                             2115.01  2117.89  2147.78  2155.79  2236.09
                             2467.27  2539.55  4335.34  4376.76  4387.92
                             4408.45  4410.02  4417.17  4425.07  5002.65
                             5183.44  5286.13  5298.13  5385.77  5401.06
                             5406.29  5428.72  5474.12

 Zero-point correction=                           0.248077 (Hartree/Particle)
 Thermal correction to Energy=                    0.265339
 Thermal correction to Enthalpy=                  0.266283
 Thermal correction to Gibbs Free Energy=         0.204560
 Sum of electronic and zero-point Energies=           -839.735726
 Sum of electronic and thermal Energies=              -839.718464
 Sum of electronic and thermal Enthalpies=            -839.717520
 Sum of electronic and thermal Free Energies=         -839.779242

                     E (Thermal)             CV                S
                      KCal/Mol        Cal/Mol-Kelvin    Cal/Mol-Kelvin
 Total                  166.503             63.820            129.906
 Electronic               0.000              0.000              0.000
 Translational            0.889              2.981             42.015
 Rotational               0.889              2.981             32.047
 Vibrational            164.725             57.858             55.845
 Vibration     1          0.595              1.978              4.810
 Vibration     2          0.598              1.970              4.236
 Vibration     3          0.601              1.958              3.722
 Vibration     4          0.604              1.947              3.409
 Vibration     5          0.609              1.931              3.076
 Vibration     6          0.611              1.926              2.984
 Vibration     7          0.619              1.901              2.651
 Vibration     8          0.619              1.899              2.631
 Vibration     9          0.633              1.854              2.230
 Vibration    10          0.638              1.839              2.124
 Vibration    11          0.643              1.824              2.032
 Vibration    12          0.649              1.804              1.923
 Vibration    13          0.659              1.773              1.774
 Vibration    14          0.669              1.744              1.655
 Vibration    15          0.677              1.720              1.568
 Vibration    16          0.707              1.632              1.301
 Vibration    17          0.724              1.585              1.188
 Vibration    18          0.729              1.571              1.157
 Vibration    19          0.746              1.523              1.059
 Vibration    20          0.756              1.496              1.007
 Vibration    21          0.757              1.493              1.003
 Vibration    22          0.768              1.466              0.956
 Vibration    23          0.784              1.425              0.889
 Vibration    24          0.831              1.308              0.726
 Vibration    25          0.835              1.297              0.713
 Vibration    26          0.865              1.228              0.634
 Vibration    27          0.889              1.176              0.579
 Vibration    28          0.919              1.111              0.517

 Optimization completed.
    -- Stationary point found.
 Normal termination of Gaussian 09 at Mon Jan 30 07:33:02 2017.
