 Gaussian 09, Revision D.01,
 Gaussian 09:  ES64L-G09RevD.01 24-Apr-2013

 ----
 # G4
 ----
 1/14=-1,18=20,19=15,26=3,38=1/1,3;
 2/9=110,12=2,17=6,18=5,40=1/2;
 3/5=35,7=104,11=2,16=1,25=1,30=1,71=1,74=-5/1,2,3;
 4//1;
 5/5=2,38=5/2;

 ------
 CO.LOG
 ------
 Symbolic Z-matrix:
 Charge =  0 Multiplicity = 1

 SCF Done:  E(RB3LYP) =  -113.319346676     A.U. after   10 cycles
 SCF Done:  E(RB3LYP) =  -113.319365446     A.U. after    6 cycles
 SCF Done:  E(RB3LYP) =  -113.319365923     A.U. after    6 cycles
 Optimization completed.
    -- Stationary point found.
 Normal termination of Gaussian 09 at Thu Mar  9 20:41:52 2017.

 ----------------------------------------------------------
 #N Geom=AllCheck Guess=TCheck SCRF=Check B3LYP/GTBas3 Freq
 ----------------------------------------------------------

 Structure from the checkpoint file:  "/home/iawad/Gau-28678.chk"
 ------
 CO.LOG
 ------
 Charge =  0 Multiplicity = 1

 SCF Done:  E(RB3LYP) =  -113.319365923     A.U. after    1 cycles

  Exact polarizability:   9.243   0.000   9.243   0.000   0.000  12.704
 Approx polarizability:  13.076   0.000  13.076   0.000   0.000  22.931

                      1
                     SG
 Frequencies --   2204.6505
 Red. masses --     13.4388
 Frc consts  --     38.4848
 IR Inten    --     63.0814

 - Thermochemistry -
 -------------------
 Temperature   298.150 Kelvin.  Pressure   1.00000 Atm.
 Atom     1 has atomic number  6 and mass  12.00000

 Molecular mass:    27.99491 amu.
 Principal axes and moments of inertia in atomic units:
                           1         2         3
     Eigenvalues --     0.00000  31.31417  31.31417
           X            0.00000   0.00000   1.00000
           Y            0.00000   1.00000   0.00000
           Z            1.00000   0.00000   0.00000
 This molecule is a prolate symmetric top.
 Rotational symmetry number  1.
 Rotational temperature (Kelvin)      2.76596
 Rotational constant (GHZ):          57.633372
 Zero-point vibrational energy      13186.7 (Joules/Mol)
                                    3.15171 (Kcal/Mol)
 Vibrational temperatures:   3172.00
          (Kelvin)

 Zero-point correction=                           0.005023 (Hartree/Particle)
 Thermal correction to Energy=                    0.007383
 Thermal correction to Enthalpy=                  0.008327
 Thermal correction to Gibbs Free Energy=        -0.014104
 Sum of electronic and zero-point Energies=           -113.314343
 Sum of electronic and thermal Energies=              -113.311983
 Sum of electronic and thermal Enthalpies=            -113.311038
 Sum of electronic and thermal Free Energies=         -113.333470

                     E (Thermal)             CV                S
                      KCal/Mol        Cal/Mol-Kelvin    Cal/Mol-Kelvin
 Total                    4.633              4.973             47.211
 Electronic               0.000              0.000              0.000
 Translational            0.889              2.981             35.923
 Rotational               0.592              1.987             11.288
 Vibrational              3.152              0.005              0.001

 Optimization completed.
    -- Stationary point found.
 Normal termination of Gaussian 09 at Thu Mar  9 20:41:59 2017.

 -----------------------------------------------------------------
 #N Geom=AllCheck Guess=TCheck SCRF=Check CCSD(T,E4T,FrzG4)/GTBas1
 -----------------------------------------------------------------

 Structure from the checkpoint file:  "/home/iawad/Gau-28678.chk"
 ------
 CO.LOG
 ------
 Charge =  0 Multiplicity = 1

 SCF Done:  E(RHF) =  -112.737097723     A.U. after   10 cycles
 E2 =    -0.2832229634D+00 EUMP2 =    -0.11302032068665D+03
 CCSD(T)= -0.11303753137D+03
 04\CCSD=-113.0268594\CCSD(T)=-113.0375314\RMSD=8.162e-10\PG=C*V [C*(C1
 Normal termination of Gaussian 09 at Thu Mar  9 20:42:01 2017.

 ---------------------------------------------------------
 #N Geom=AllCheck Guess=TCheck SCRF=Check MP4=FrzG4/GTBas2
 ---------------------------------------------------------

 Structure from the checkpoint file:  "/home/iawad/Gau-28678.chk"
 ------
 CO.LOG
 ------
 Charge =  0 Multiplicity = 1

 SCF Done:  E(RHF) =  -112.741317032     A.U. after    9 cycles
 E2 =    -0.2869117397D+00 EUMP2 =    -0.11302822877120D+03
 Normal termination of Gaussian 09 at Thu Mar  9 20:42:03 2017.

 ---------------------------------------------------------
 #N Geom=AllCheck Guess=TCheck SCRF=Check MP4=FrzG4/GTBas3
 ---------------------------------------------------------

 Structure from the checkpoint file:  "/home/iawad/Gau-28678.chk"
 ------
 CO.LOG
 ------
 Charge =  0 Multiplicity = 1

 SCF Done:  E(RHF) =  -112.747910899     A.U. after    9 cycles
 E2 =    -0.3362964016D+00 EUMP2 =    -0.11308420730077D+03
 Normal termination of Gaussian 09 at Thu Mar  9 20:42:06 2017.

 -----------------------------------------------------------
 #N Geom=AllCheck Guess=TCheck SCRF=Check MP2=Full/GTLargeXP
 -----------------------------------------------------------

 Structure from the checkpoint file:  "/home/iawad/Gau-28678.chk"
 ------
 CO.LOG
 ------
 Charge =  0 Multiplicity = 1

 SCF Done:  E(RHF) =  -112.779353526     A.U. after   10 cycles
 E2 =    -0.4477272761D+00 EUMP2 =    -0.11322708080164D+03
 Normal termination of Gaussian 09 at Thu Mar  9 20:42:11 2017.
 SCF Done:  E(RHF) =  -112.788601915     A.U. after    8 cycles
 Normal termination of Gaussian 09 at Thu Mar  9 20:42:18 2017.

                         Standard orientation:
 ---------------------------------------------------------------------
 Center     Atomic      Atomic             Coordinates (Angstroms)
 Number     Number       Type             X           Y           Z
 ---------------------------------------------------------------------
      1          6           0        0.000000    0.000000   -0.646237
      2          8           0        0.000000    0.000000    0.484677
 ---------------------------------------------------------------------

 SCF Done:  E(RHF) =  -112.790277387     A.U. after    7 cycles

 The electronic state is 1-SG.
 Alpha  occ. eigenvalues --  -20.66468 -11.36131  -1.51965  -0.80429  -0.63919
 Alpha  occ. eigenvalues --   -0.63919  -0.55523
 Alpha virt. eigenvalues --    0.05456   0.05456   0.05704   0.06285   0.12846
 Alpha virt. eigenvalues --    0.12846   0.14322   0.15509   0.15509   0.24032
 Alpha virt. eigenvalues --    0.26625   0.32378   0.32378   0.46644   0.49543

 Mulliken charges:
               1
     1  C    0.302782
     2  O   -0.302782
 Sum of Mulliken charges =   0.00000

 Dipole moment (field-independent basis, Debye):
    X=              0.0000    Y=              0.0000    Z=             -0.2792  Tot=              0.2792
 Quadrupole moment (field-independent basis, Debye-Ang):
   XX=            -10.2162   YY=            -10.2162   ZZ=            -12.2734
   XY=              0.0000   XZ=              0.0000   YZ=              0.0000

 Normal termination of Gaussian 09 at Thu Mar  9 20:45:06 2017.
