 Gaussian 09, Revision D.01,
 Gaussian 09:  ES64L-G09RevD.01 24-Apr-2013

 ----
 # G4
 ----
 1/14=-1,18=20,19=15,26=3,38=1/1,3;
 2/9=110,12=2,17=6,18=5,40=1/2;
 3/5=35,7=104,11=2,16=1,25=1,30=1,71=1,74=-5/1,2,3;
 4//1;
 5/5=2,38=5/2;

 ------
 FH.LOG
 ------
 Symbolic Z-matrix:
 Charge =  0 Multiplicity = 1

 SCF Done:  E(RB3LYP) =  -100.433150535     A.U. after    9 cycles
 SCF Done:  E(RB3LYP) =  -100.433188565     A.U. after    6 cycles
 SCF Done:  E(RB3LYP) =  -100.433188691     A.U. after    5 cycles
 Optimization completed.
    -- Stationary point found.
 Normal termination of Gaussian 09 at Thu Mar  9 16:39:00 2017.

 ----------------------------------------------------------
 #N Geom=AllCheck Guess=TCheck SCRF=Check B3LYP/GTBas3 Freq
 ----------------------------------------------------------

 Structure from the checkpoint file:  "/home/iawad/Gau-21497.chk"
 ------
 FH.LOG
 ------
 Charge =  0 Multiplicity = 1

 SCF Done:  E(RB3LYP) =  -100.433188691     A.U. after    1 cycles

  Exact polarizability:   3.091   0.000   3.091   0.000   0.000   5.226
 Approx polarizability:   3.548   0.000   3.548   0.000   0.000   6.872

                      1
                     SG
 Frequencies --   4114.9008
 Red. masses --      1.0583
 Frc consts  --     10.5580
 IR Inten    --     61.2351

 - Thermochemistry -
 -------------------
 Temperature   298.150 Kelvin.  Pressure   1.00000 Atm.
 Atom     1 has atomic number  9 and mass  18.99840

 Molecular mass:    20.00623 amu.
 Principal axes and moments of inertia in atomic units:
                           1         2         3
     Eigenvalues --     0.00000   2.88931   2.88931
           X            0.00000   0.00000   1.00000
           Y            0.00000   1.00000   0.00000
           Z            1.00000   0.00000   0.00000
 This molecule is a prolate symmetric top.
 Rotational symmetry number  1.
 Rotational temperature (Kelvin)     29.97729
 Rotational constant (GHZ):         624.626137
 Zero-point vibrational energy      24612.6 (Joules/Mol)
                                    5.88255 (Kcal/Mol)
 Vibrational temperatures:   5920.42
          (Kelvin)

 Zero-point correction=                           0.009374 (Hartree/Particle)
 Thermal correction to Energy=                    0.011735
 Thermal correction to Enthalpy=                  0.012679
 Thermal correction to Gibbs Free Energy=        -0.007026
 Sum of electronic and zero-point Energies=           -100.423814
 Sum of electronic and thermal Energies=              -100.421454
 Sum of electronic and thermal Enthalpies=            -100.420510
 Sum of electronic and thermal Free Energies=         -100.440215

                     E (Thermal)             CV                S
                      KCal/Mol        Cal/Mol-Kelvin    Cal/Mol-Kelvin
 Total                    7.364              4.968             41.474
 Electronic               0.000              0.000              0.000
 Translational            0.889              2.981             34.922
 Rotational               0.592              1.987              6.552
 Vibrational              5.883              0.000              0.000

 Optimization completed.
    -- Stationary point found.
 Normal termination of Gaussian 09 at Thu Mar  9 16:39:04 2017.

 -----------------------------------------------------------------
 #N Geom=AllCheck Guess=TCheck SCRF=Check CCSD(T,E4T,FrzG4)/GTBas1
 -----------------------------------------------------------------

 Structure from the checkpoint file:  "/home/iawad/Gau-21497.chk"
 ------
 FH.LOG
 ------
 Charge =  0 Multiplicity = 1

 SCF Done:  E(RHF) =  -100.002819905     A.U. after    9 cycles
 E2 =    -0.1791215164D+00 EUMP2 =    -0.10018194142131D+03
 CCSD(T)= -0.10018805670D+03
 05\CCSD=-100.1863627\CCSD(T)=-100.1880567\RMSD=1.306e-09\PG=C*V [C*(H1
 Normal termination of Gaussian 09 at Thu Mar  9 16:39:07 2017.

 ---------------------------------------------------------
 #N Geom=AllCheck Guess=TCheck SCRF=Check MP4=FrzG4/GTBas2
 ---------------------------------------------------------

 Structure from the checkpoint file:  "/home/iawad/Gau-21497.chk"
 ------
 FH.LOG
 ------
 Charge =  0 Multiplicity = 1

 SCF Done:  E(RHF) =  -100.014827928     A.U. after    9 cycles
 E2 =    -0.1876077098D+00 EUMP2 =    -0.10020243563769D+03
 Normal termination of Gaussian 09 at Thu Mar  9 16:39:08 2017.

 ---------------------------------------------------------
 #N Geom=AllCheck Guess=TCheck SCRF=Check MP4=FrzG4/GTBas3
 ---------------------------------------------------------

 Structure from the checkpoint file:  "/home/iawad/Gau-21497.chk"
 ------
 FH.LOG
 ------
 Charge =  0 Multiplicity = 1

 SCF Done:  E(RHF) =  -100.015156937     A.U. after    9 cycles
 E2 =    -0.2385379133D+00 EUMP2 =    -0.10025369485068D+03
 Normal termination of Gaussian 09 at Thu Mar  9 16:39:10 2017.

 -----------------------------------------------------------
 #N Geom=AllCheck Guess=TCheck SCRF=Check MP2=Full/GTLargeXP
 -----------------------------------------------------------

 Structure from the checkpoint file:  "/home/iawad/Gau-21497.chk"
 ------
 FH.LOG
 ------
 Charge =  0 Multiplicity = 1

 SCF Done:  E(RHF) =  -100.056499150     A.U. after    9 cycles
 E2 =    -0.3219353413D+00 EUMP2 =    -0.10037843449099D+03
 Normal termination of Gaussian 09 at Thu Mar  9 16:39:12 2017.
 SCF Done:  E(RHF) =  -100.067978257     A.U. after    8 cycles
 Normal termination of Gaussian 09 at Thu Mar  9 16:39:15 2017.

                         Standard orientation:
 ---------------------------------------------------------------------
 Center     Atomic      Atomic             Coordinates (Angstroms)
 Number     Number       Type             X           Y           Z
 ---------------------------------------------------------------------
      1          9           0        0.000000    0.000000    0.091945
      2          1           0        0.000000    0.000000   -0.827509
 ---------------------------------------------------------------------

 SCF Done:  E(RHF) =  -100.070348624     A.U. after    7 cycles

 The electronic state is 1-SG.
 Alpha  occ. eigenvalues --  -26.29462  -1.60010  -0.76719  -0.65012  -0.65012
 Alpha virt. eigenvalues --    0.07791   0.12917   0.13538   0.13538   0.28713
 Alpha virt. eigenvalues --    0.37998   0.57905   0.60530   0.60530   0.68122
 Alpha virt. eigenvalues --    0.68122   0.91534   1.06660   1.14132   1.28193

 Mulliken charges:
               1
     1  F   -0.418649
     2  H    0.418649
 Sum of Mulliken charges =   0.00000

 Dipole moment (field-independent basis, Debye):
    X=              0.0000    Y=              0.0000    Z=             -1.9388  Tot=              1.9388
 Quadrupole moment (field-independent basis, Debye-Ang):
   XX=             -5.6832   YY=             -5.6832   ZZ=             -3.5319
   XY=              0.0000   XZ=              0.0000   YZ=              0.0000

 Normal termination of Gaussian 09 at Thu Mar  9 16:39:26 2017.
