 Gaussian 09, Revision D.01,
 Gaussian 09:  ES64L-G09RevD.01 24-Apr-2013

 ----
 # G4
 ----
 1/14=-1,18=20,19=15,26=3,38=1/1,3;
 2/9=110,12=2,17=6,18=5,40=1/2;
 3/5=35,7=104,11=2,16=1,25=1,30=1,71=1,74=-5/1,2,3;
 4//1;
 5/5=2,38=5/2;

 ------
 H2.LOG
 ------
 Symbolic Z-matrix:
 Charge =  0 Multiplicity = 1

 SCF Done:  E(RB3LYP) =  -1.17853933610     A.U. after    6 cycles
 Optimization completed.
    -- Stationary point found.
 Normal termination of Gaussian 09 at Thu Mar  9 16:39:27 2017.

 ----------------------------------------------------------
 #N Geom=AllCheck Guess=TCheck SCRF=Check B3LYP/GTBas3 Freq
 ----------------------------------------------------------

 Structure from the checkpoint file:  "/home/iawad/Gau-22156.chk"
 ------
 H2.LOG
 ------
 Charge =  0 Multiplicity = 1

 SCF Done:  E(RB3LYP) =  -1.17853933610     A.U. after    1 cycles

  Exact polarizability:   0.582   0.000   0.582   0.000   0.000   6.366
 Approx polarizability:   0.599   0.000   0.599   0.000   0.000   7.764

                      1
                     SGG
 Frequencies --   4465.5561
 Red. masses --      1.0078
 Frc consts  --     11.8409
 IR Inten    --      0.0000

 - Thermochemistry -
 -------------------
 Temperature   298.150 Kelvin.  Pressure   1.00000 Atm.
 Atom     1 has atomic number  1 and mass   1.00783

 Molecular mass:     2.01565 amu.
 Principal axes and moments of inertia in atomic units:
                           1         2         3
     Eigenvalues --     0.00000   0.99288   0.99288
           X            0.00000   1.00000   0.00000
           Y            0.00000   0.00000   1.00000
           Z            1.00000   0.00000   0.00000
 This molecule is a prolate symmetric top.
 Rotational symmetry number  2.
 Rotational temperature (Kelvin)     87.23494
 Rotational constant (GHZ):        1817.683473
 Zero-point vibrational energy      26710.0 (Joules/Mol)
                                    6.38383 (Kcal/Mol)
 Vibrational temperatures:   6424.93
          (Kelvin)

 Zero-point correction=                           0.010173 (Hartree/Particle)
 Thermal correction to Energy=                    0.012534
 Thermal correction to Enthalpy=                  0.013478
 Thermal correction to Gibbs Free Energy=        -0.001314
 Sum of electronic and zero-point Energies=             -1.168366
 Sum of electronic and thermal Energies=                -1.166006
 Sum of electronic and thermal Enthalpies=              -1.165061
 Sum of electronic and thermal Free Energies=           -1.179853

                     E (Thermal)             CV                S
                      KCal/Mol        Cal/Mol-Kelvin    Cal/Mol-Kelvin
 Total                    7.865              4.968             31.132
 Electronic               0.000              0.000              0.000
 Translational            0.889              2.981             28.080
 Rotational               0.592              1.987              3.052
 Vibrational              6.384              0.000              0.000

 Optimization completed.
    -- Stationary point found.
 Normal termination of Gaussian 09 at Thu Mar  9 16:39:29 2017.

 -----------------------------------------------------------------
 #N Geom=AllCheck Guess=TCheck SCRF=Check CCSD(T,E4T,FrzG4)/GTBas1
 -----------------------------------------------------------------

 Structure from the checkpoint file:  "/home/iawad/Gau-22156.chk"
 ------
 H2.LOG
 ------
 Charge =  0 Multiplicity = 1

 SCF Done:  E(RHF) =  -1.12670993824     A.U. after    4 cycles
 E2 =    -0.1741163148D-01 EUMP2 =    -0.11441215697215D+01
 CCSD(T)= -0.11516902791D+01
 .1509254\MP4SDTQ=-1.1509538\MP4SDQ=-1.1509538\CCSD=-1.1516903\CCSD(T)=
 Normal termination of Gaussian 09 at Thu Mar  9 16:39:29 2017.

 ---------------------------------------------------------
 #N Geom=AllCheck Guess=TCheck SCRF=Check MP4=FrzG4/GTBas2
 ---------------------------------------------------------

 Structure from the checkpoint file:  "/home/iawad/Gau-22156.chk"
 ------
 H2.LOG
 ------
 Charge =  0 Multiplicity = 1

 SCF Done:  E(RHF) =  -1.12670993824     A.U. after    1 cycles
 E2 =    -0.1741163148D-01 EUMP2 =    -0.11441215697215D+01
 Normal termination of Gaussian 09 at Thu Mar  9 16:39:30 2017.

 ---------------------------------------------------------
 #N Geom=AllCheck Guess=TCheck SCRF=Check MP4=FrzG4/GTBas3
 ---------------------------------------------------------

 Structure from the checkpoint file:  "/home/iawad/Gau-22156.chk"
 ------
 H2.LOG
 ------
 Charge =  0 Multiplicity = 1

 SCF Done:  E(RHF) =  -1.13125868697     A.U. after    5 cycles
 E2 =    -0.2634547621D-01 EUMP2 =    -0.11576041631803D+01
 Normal termination of Gaussian 09 at Thu Mar  9 16:39:31 2017.

 -----------------------------------------------------------
 #N Geom=AllCheck Guess=TCheck SCRF=Check MP2=Full/GTLargeXP
 -----------------------------------------------------------

 Structure from the checkpoint file:  "/home/iawad/Gau-22156.chk"
 ------
 H2.LOG
 ------
 Charge =  0 Multiplicity = 1

 SCF Done:  E(RHF) =  -1.13297271402     A.U. after    6 cycles
 E2 =    -0.2980035877D-01 EUMP2 =    -0.11627730727921D+01
 Normal termination of Gaussian 09 at Thu Mar  9 16:39:32 2017.
 SCF Done:  E(RHF) =  -1.13336101225     A.U. after    6 cycles
 Normal termination of Gaussian 09 at Thu Mar  9 16:39:33 2017.

                         Standard orientation:
 ---------------------------------------------------------------------
 Center     Atomic      Atomic             Coordinates (Angstroms)
 Number     Number       Type             X           Y           Z
 ---------------------------------------------------------------------
      1          1           0        0.000000    0.000000    0.371400
      2          1           0        0.000000    0.000000   -0.371400
 ---------------------------------------------------------------------

 SCF Done:  E(RHF) =  -1.13356681430     A.U. after    5 cycles

 The electronic state is 1-SGG.
 Alpha  occ. eigenvalues --   -0.59405
 Alpha virt. eigenvalues --    0.11931   0.16100   0.38652   0.51058   0.51058
 Alpha virt. eigenvalues --    0.77608   0.82242   0.82242   0.88799   0.92291
 Alpha virt. eigenvalues --    1.39807   1.94748   1.94748   2.15994   2.15994

 Mulliken charges:
               1
     1  H    0.000000
     2  H    0.000000
 Sum of Mulliken charges =   0.00000

 Dipole moment (field-independent basis, Debye):
    X=              0.0000    Y=              0.0000    Z=              0.0000  Tot=              0.0000
 Quadrupole moment (field-independent basis, Debye-Ang):
   XX=             -2.0902   YY=             -2.0902   ZZ=             -1.4352
   XY=              0.0000   XZ=              0.0000   YZ=              0.0000

 Normal termination of Gaussian 09 at Thu Mar  9 16:39:34 2017.
