 Gaussian 09, Revision D.01,
 Gaussian 09:  ES64L-G09RevD.01 24-Apr-2013

 ----
 # G4
 ----
 1/14=-1,18=20,19=15,26=3,38=1/1,3;
 2/9=110,12=2,17=6,18=5,40=1/2;
 3/5=35,7=104,11=2,16=1,25=1,30=1,71=1,74=-5/1,2,3;
 4//1;
 5/5=2,38=5/2;

 -------
 LiH.LOG
 -------
 Symbolic Z-matrix:
 Charge =  0 Multiplicity = 1

 SCF Done:  E(RB3LYP) =  -8.08377959433     A.U. after    9 cycles
 Optimization completed.
    -- Stationary point found.
 Normal termination of Gaussian 09 at Thu Mar  9 16:39:36 2017.

 ----------------------------------------------------------
 #N Geom=AllCheck Guess=TCheck SCRF=Check B3LYP/GTBas3 Freq
 ----------------------------------------------------------

 Structure from the checkpoint file:  "/home/iawad/Gau-22418.chk"
 -------
 LiH.LOG
 -------
 Charge =  0 Multiplicity = 1

 SCF Done:  E(RB3LYP) =  -8.08377959433     A.U. after    1 cycles

  Exact polarizability:  30.808   0.000  30.808   0.000   0.000  27.145
 Approx polarizability:  30.492   0.000  30.492   0.000   0.000  28.323

                      1
                     SG
 Frequencies --   1428.3758
 Red. masses --      1.1293
 Frc consts  --      1.3575
 IR Inten    --    109.6929

 - Thermochemistry -
 -------------------
 Temperature   298.150 Kelvin.  Pressure   1.00000 Atm.
 Atom     1 has atomic number  3 and mass   7.01600

 Molecular mass:     8.02383 amu.
 Principal axes and moments of inertia in atomic units:
                           1         2         3
     Eigenvalues --     0.00000   8.20848   8.20848
           X            0.00000   0.00000   1.00000
           Y            0.00000   1.00000   0.00000
           Z            1.00000   0.00000   0.00000
 This molecule is a prolate symmetric top.
 Rotational symmetry number  1.
 Rotational temperature (Kelvin)     10.55174
 Rotational constant (GHZ):         219.862896
 Zero-point vibrational energy       8543.6 (Joules/Mol)
                                    2.04197 (Kcal/Mol)
 Vibrational temperatures:   2055.11
          (Kelvin)

 Zero-point correction=                           0.003254 (Hartree/Particle)
 Thermal correction to Energy=                    0.005621
 Thermal correction to Enthalpy=                  0.006565
 Thermal correction to Gibbs Free Energy=        -0.012840
 Sum of electronic and zero-point Energies=             -8.080526
 Sum of electronic and thermal Energies=                -8.078158
 Sum of electronic and thermal Enthalpies=              -8.077214
 Sum of electronic and thermal Free Energies=           -8.096619

                     E (Thermal)             CV                S
                      KCal/Mol        Cal/Mol-Kelvin    Cal/Mol-Kelvin
 Total                    3.527              5.064             40.841
 Electronic               0.000              0.000              0.000
 Translational            0.889              2.981             32.198
 Rotational               0.592              1.987              8.627
 Vibrational              2.046              0.096              0.016

 Optimization completed.
    -- Stationary point found.
 Normal termination of Gaussian 09 at Thu Mar  9 16:39:43 2017.

 -----------------------------------------------------------------
 #N Geom=AllCheck Guess=TCheck SCRF=Check CCSD(T,E4T,FrzG4)/GTBas1
 -----------------------------------------------------------------

 Structure from the checkpoint file:  "/home/iawad/Gau-22418.chk"
 -------
 LiH.LOG
 -------
 Charge =  0 Multiplicity = 1

 SCF Done:  E(RHF) =  -7.98081673578     A.U. after    8 cycles
 E2 =    -0.1506631121D-01 EUMP2 =    -0.79958830469866D+01
 CCSD(T)= -0.80027798893D+01
 Normal termination of Gaussian 09 at Thu Mar  9 16:39:44 2017.

 ---------------------------------------------------------
 #N Geom=AllCheck Guess=TCheck SCRF=Check MP4=FrzG4/GTBas2
 ---------------------------------------------------------

 Structure from the checkpoint file:  "/home/iawad/Gau-22418.chk"
 -------
 LiH.LOG
 -------
 Charge =  0 Multiplicity = 1

 SCF Done:  E(RHF) =  -7.98095934800     A.U. after    8 cycles
 E2 =    -0.1512518525D-01 EUMP2 =    -0.79960845332542D+01
 Normal termination of Gaussian 09 at Thu Mar  9 16:39:45 2017.

 ---------------------------------------------------------
 #N Geom=AllCheck Guess=TCheck SCRF=Check MP4=FrzG4/GTBas3
 ---------------------------------------------------------

 Structure from the checkpoint file:  "/home/iawad/Gau-22418.chk"
 -------
 LiH.LOG
 -------
 Charge =  0 Multiplicity = 1

 SCF Done:  E(RHF) =  -7.98248119502     A.U. after    8 cycles
 E2 =    -0.2279420438D-01 EUMP2 =    -0.80052753993905D+01
 Normal termination of Gaussian 09 at Thu Mar  9 16:39:47 2017.

 -----------------------------------------------------------
 #N Geom=AllCheck Guess=TCheck SCRF=Check MP2=Full/GTLargeXP
 -----------------------------------------------------------

 Structure from the checkpoint file:  "/home/iawad/Gau-22418.chk"
 -------
 LiH.LOG
 -------
 Charge =  0 Multiplicity = 1

 SCF Done:  E(RHF) =  -7.98613780621     A.U. after    9 cycles
 E2 =    -0.5852024319D-01 EUMP2 =    -0.80446580494026D+01
 Normal termination of Gaussian 09 at Thu Mar  9 16:39:49 2017.
 SCF Done:  E(RHF) =  -7.98716035027     A.U. after    7 cycles
 Normal termination of Gaussian 09 at Thu Mar  9 16:39:52 2017.

                         Standard orientation:
 ---------------------------------------------------------------------
 Center     Atomic      Atomic             Coordinates (Angstroms)
 Number     Number       Type             X           Y           Z
 ---------------------------------------------------------------------
      1          3           0        0.000000    0.000000    0.403763
      2          1           0        0.000000    0.000000   -1.211288
 ---------------------------------------------------------------------

 SCF Done:  E(RHF) =  -7.98732343942     A.U. after    7 cycles

 The electronic state is 1-SG.
 Alpha  occ. eigenvalues --   -2.44703  -0.30065
 Alpha virt. eigenvalues --   -0.00756   0.01493   0.01493   0.01879   0.02369
 Alpha virt. eigenvalues --    0.04650   0.04650   0.07889   0.09306   0.11689
 Alpha virt. eigenvalues --    0.11689   0.14927   0.16649   0.16649   0.17392

 Mulliken charges:
               1
     1  Li   0.337337
     2  H   -0.337337
 Sum of Mulliken charges =   0.00000

 Dipole moment (field-independent basis, Debye):
    X=              0.0000    Y=              0.0000    Z=              6.0454  Tot=              6.0454
 Quadrupole moment (field-independent basis, Debye-Ang):
   XX=             -5.2734   YY=             -5.2734   ZZ=             -7.4352
   XY=              0.0000   XZ=              0.0000   YZ=              0.0000

 Normal termination of Gaussian 09 at Thu Mar  9 16:40:03 2017.
