 Gaussian 09, Revision D.01,
 Gaussian 09:  ES64L-G09RevD.01 24-Apr-2013

 --------------------------
 # opt freq UHF/gen gfprint
 --------------------------

 ------------------------------
 FLUORINE_1.0_1.0_1.0_1.0_0.99_
 ------------------------------
 Symbolic Z-matrix:
 Charge =  0 Multiplicity = 2

 SCF Done:  E(UHF) =  -45.7900919472     A.U. after   10 cycles
 Optimization completed.
    -- Stationary point found.
 Normal termination of Gaussian 09 at Fri Jul  1 04:27:05 2016.

 ---------------------------------------------------------------
 #N Geom=AllCheck Guess=TCheck SCRF=Check GenChk UHF/ChkBas Freq
 ---------------------------------------------------------------

 Structure from the checkpoint file:  "/home/ibrahim/.g09D1/g09/exe/Gau-8110.chk"
 ------------------------------
 FLUORINE_1.0_1.0_1.0_1.0_0.99_
 ------------------------------
 Charge =  0 Multiplicity = 2

                         Standard orientation:
 ---------------------------------------------------------------------
 Center     Atomic      Atomic             Coordinates (Angstroms)
 Number     Number       Type             X           Y           Z
 ---------------------------------------------------------------------
      1          9           0        0.000000    0.000000    0.000000
 ---------------------------------------------------------------------

 SCF Done:  E(UHF) =  -45.7900919472     A.U. after    1 cycles

 Unable to determine electronic state:  partially filled degenerate orbitals.
 Alpha  occ. eigenvalues --  -10.00266  -1.46378  -1.42044  -1.42044  -1.38511
 Alpha virt. eigenvalues --    0.08627   0.14174   0.16658   0.16658
  Beta  occ. eigenvalues --   -9.95174  -1.39854  -1.39854  -1.31658
  Beta virt. eigenvalues --   -1.02616   0.09620   0.16215   0.17001   0.17001

 Mulliken charges and spin densities:
               1          2
     1  F    0.000000   1.000000
 Sum of Mulliken charges =   0.00000   1.00000

 Dipole moment (field-independent basis, Debye):
    X=              0.0000    Y=              0.0000    Z=              0.0000  Tot=              0.0000
 Quadrupole moment (field-independent basis, Debye-Ang):
   XX=            -43.1760   YY=            -43.1760   ZZ=            -37.4124
   XY=              0.0000   XZ=              0.0000   YZ=              0.0000

  Exact polarizability:   0.215   0.000   0.215   0.000   0.000-116.357
 Approx polarizability:   0.192   0.000   0.192   0.000   0.000  13.611

 - Thermochemistry -
 -------------------
 Temperature   298.150 Kelvin.  Pressure   1.00000 Atm.
 Atom     1 has atomic number  9 and mass  18.99840
 Molecular mass:    18.99840 amu.
 Zero-point vibrational energy          0.0 (Joules/Mol)
                                    0.00000 (Kcal/Mol)
 Vibrational temperatures:
          (Kelvin)

 Zero-point correction=                           0.000000 (Hartree/Particle)
 Thermal correction to Energy=                    0.001416
 Thermal correction to Enthalpy=                  0.002360
 Thermal correction to Gibbs Free Energy=        -0.014813
 Sum of electronic and zero-point Energies=            -45.790092
 Sum of electronic and thermal Energies=               -45.788676
 Sum of electronic and thermal Enthalpies=             -45.787731
 Sum of electronic and thermal Free Energies=          -45.804905

                     E (Thermal)             CV                S
                      KCal/Mol        Cal/Mol-Kelvin    Cal/Mol-Kelvin
 Total                    0.889              2.981             36.145
 Electronic               0.000              0.000              1.377
 Translational            0.889              2.981             34.767
 Rotational               0.000              0.000              0.000
 Vibrational              0.000              0.000              0.000

 Optimization completed.
    -- Stationary point found.
 Normal termination of Gaussian 09 at Fri Jul  1 04:27:10 2016.
