 Gaussian 09, Revision D.01,
 Gaussian 09:  ES64L-G09RevD.01 24-Apr-2013

 --------------------------
 # opt freq UHF/gen gfprint
 --------------------------

 LITHIUM_2.0842628939182495_2.3406964507112997_1.0_0.7227090404706993_1
 .5_
 ----------------------------------------------------------------------
 Symbolic Z-matrix:
 Charge =  0 Multiplicity = 2

 SCF Done:  E(UHF) =  -7.40203015068     A.U. after    6 cycles

 The electronic state is 2-A1G.
 Alpha  occ. eigenvalues --   -2.45775  -0.19416
 Alpha virt. eigenvalues --    0.12434   0.12434   0.12434   0.83048   0.83048
 Alpha virt. eigenvalues --    0.83048   2.24766
  Beta  occ. eigenvalues --   -2.43848
  Beta virt. eigenvalues --    0.05173   0.18188   0.18188   0.18188   0.84353
  Beta virt. eigenvalues --    0.84353   0.84353   2.28093

 Mulliken charges and spin densities:
               1          2
     1  Li   0.000000   1.000000
 Sum of Mulliken charges =   0.00000   1.00000

 Dipole moment (field-independent basis, Debye):
    X=              0.0000    Y=              0.0000    Z=              0.0000  Tot=              0.0000
 Quadrupole moment (field-independent basis, Debye-Ang):
   XX=             -7.2629   YY=             -7.2629   ZZ=             -7.2629
   XY=              0.0000   XZ=              0.0000   YZ=              0.0000

 Optimization completed.
    -- Stationary point found.
 Normal termination of Gaussian 09 at Mon Jul  4 20:24:16 2016.

 ---------------------------------------------------------------
 #N Geom=AllCheck Guess=TCheck SCRF=Check GenChk UHF/ChkBas Freq
 ---------------------------------------------------------------

 ----------------------------------------------------------------------
 LITHIUM_2.0842628939182495_2.3406964507112997_1.0_0.7227090404706993_1
 .5_
 ----------------------------------------------------------------------
 Charge =  0 Multiplicity = 2

                         Standard orientation:
 ---------------------------------------------------------------------
 Center     Atomic      Atomic             Coordinates (Angstroms)
 Number     Number       Type             X           Y           Z
 ---------------------------------------------------------------------
      1          3           0        0.000000    0.000000    0.000000
 ---------------------------------------------------------------------

 SCF Done:  E(UHF) =  -7.40203015068     A.U. after    1 cycles
