 Gaussian 09, Revision E.01,
 Gaussian 09:  ES64L-G09RevE.01 30-Nov-2015

 ----------------------------------------------------------------------
 # opt=(calcfc,ts,noeigentest,maxcycle=1000,cartesian) b3lyp 6-31g(d) f
 req
 ----------------------------------------------------------------------

 ------------------------------------------
 ./5/glo_1w_beta_boat5_b3lyp_631Gd_iopt.out
 ------------------------------------------
 Symbolic Z-matrix:
 Charge =  0 Multiplicity = 1

 SCF Done:  E(RB3LYP) =  -839.980838150     A.U. after   14 cycles
 Optimization completed.
    -- Stationary point found.
 Normal termination of Gaussian 09 at Mon Jan 30 07:04:48 2017.

 --------------------------------------------------------------------
 #N Geom=AllCheck Guess=TCheck SCRF=Check GenChk RB3LYP/6-31G(d) Freq
 --------------------------------------------------------------------

 Structure from the checkpoint file:  "/scratch/10499770.yak.local/Gau-7554.chk"
 ------------------------------------------
 ./5/glo_1w_beta_boat5_b3lyp_631Gd_iopt.out
 ------------------------------------------
 Charge =  0 Multiplicity = 1

                         Standard orientation:
 ---------------------------------------------------------------------
 Center     Atomic      Atomic             Coordinates (Angstroms)
 Number     Number       Type             X           Y           Z
 ---------------------------------------------------------------------
      1          8           0       -1.446960    0.035006   -0.245720
      2          6           0        0.300697    1.095800    1.136930
      3          6           0        0.718463   -1.114649   -0.062430
      4          6           0        1.311809    0.260212    0.354740
      5          6           0       -0.796287   -1.214253    0.148850
      6          6           0       -0.998843    1.264377    0.345690
      7          1           0        2.163460    0.055134    1.021500
      8          1           0       -1.762564    1.607275    1.058760
      9          1           0        0.719385    2.091961    1.334680
     10          1           0        0.883293   -1.226239   -1.141990
     11          6           0       -0.868525    2.257277   -0.839100
     12          1           0       -1.851966    2.679625   -1.085350
     13          1           0       -0.514864    1.692198   -1.700940
     14          1           0       -1.031877   -1.400623    1.202980
     15          8           0       -1.289355   -2.199184   -0.681940
     16          1           0       -2.253035   -2.269566   -0.502380
     17          8           0        0.094442    3.298949   -0.645080
     18          1           0       -0.239239    3.914899    0.025900
     19          8           0        1.332485   -2.155808    0.673780
     20          1           0        2.254675   -2.171966    0.343270
     21          8           0        1.788878    0.924983   -0.820200
     22          1           0        1.727866    1.890053   -0.693370
     23          8           0       -0.010501    0.471029    2.382080
     24          1           0        0.648731   -0.219169    2.561550
     25          8           0       -3.912217   -1.325450   -0.394060
     26          1           0       -3.285619   -0.573608   -0.346230
     27          1           0       -4.184077   -1.341801   -1.324900
     28          8           0        3.663033   -1.283112   -0.835250
     29          1           0        3.270031   -0.411473   -1.041430
     30          1           0        3.693474   -1.740602   -1.689040
 ---------------------------------------------------------------------

 SCF Done:  E(RB3LYP) =  -839.980838150     A.U. after    1 cycles

 The electronic state is 1-A.
 Alpha  occ. eigenvalues --  -19.17911 -19.16914 -19.16162 -19.15865 -19.15375
 Alpha  occ. eigenvalues --  -19.14672 -19.13500 -19.13240 -10.27874 -10.25201
 Alpha  occ. eigenvalues --  -10.25099 -10.24869 -10.24727 -10.23184  -1.06635
 Alpha  occ. eigenvalues --   -1.04692  -1.03981  -1.02959  -1.01294  -1.00596
 Alpha  occ. eigenvalues --   -1.00410  -0.99340  -0.78289  -0.76379  -0.69711
 Alpha  occ. eigenvalues --   -0.66258  -0.62827  -0.56350  -0.55803  -0.53948
 Alpha  occ. eigenvalues --   -0.53338  -0.52963  -0.52171  -0.51004  -0.49877
 Alpha  occ. eigenvalues --   -0.49159  -0.45868  -0.45348  -0.42878  -0.42385
 Alpha  occ. eigenvalues --   -0.41615  -0.41209  -0.40005  -0.38757  -0.38468
 Alpha  occ. eigenvalues --   -0.36051  -0.35567  -0.34883  -0.33618  -0.32953
 Alpha  occ. eigenvalues --   -0.31505  -0.30775  -0.30047  -0.29213  -0.28897
 Alpha  occ. eigenvalues --   -0.27052  -0.25757  -0.25501
 Alpha virt. eigenvalues --    0.03600   0.06027   0.06347   0.06812   0.08968
 Alpha virt. eigenvalues --    0.10742   0.11514   0.12834   0.13490   0.14855
 Alpha virt. eigenvalues --    0.15111   0.16076   0.17454   0.18213   0.18484

 Mulliken charges:
               1
     1  O   -0.562446
     2  C    0.080815
     3  C    0.093817
     4  C    0.073382
     5  C    0.364366
     6  C    0.134162
     7  H    0.140900
     8  H    0.140671
     9  H    0.121720
    10  H    0.143042
    11  C   -0.077139
    12  H    0.142611
    13  H    0.187494
    14  H    0.140283
    15  O   -0.643538
    16  H    0.415855
    17  O   -0.624196
    18  H    0.402293
    19  O   -0.661490
    20  H    0.422808
    21  O   -0.670990
    22  H    0.427769
    23  O   -0.639247
    24  H    0.411351
    25  O   -0.797349
    26  H    0.417741
    27  H    0.394132
    28  O   -0.805685
    29  H    0.427543
    30  H    0.399324
 Sum of Mulliken charges =   0.00000

 Dipole moment (field-independent basis, Debye):
    X=              0.3295    Y=              4.2259    Z=             -1.6258  Tot=              4.5399
 Quadrupole moment (field-independent basis, Debye-Ang):
   XX=            -83.5077   YY=            -81.1790   ZZ=            -81.4364
   XY=             -5.2404   XZ=              3.3139   YZ=              6.2479

  Exact polarizability:  98.730  -2.870 101.531   1.385   1.191  83.096
 Approx polarizability: 126.714  -2.370 136.266  -0.315   1.149 123.736

 ******    1 imaginary frequencies (negative Signs) ******

                      1                      2                      3
                      A                      A                      A
 Frequencies --    -96.6633                37.6663                54.6065
 Red. masses --      1.9591                 5.5733                 4.7606
 Frc consts  --      0.0108                 0.0047                 0.0084
 IR Inten    --     61.6535                 2.9146                 8.9391

                      4                      5                      6
                      A                      A                      A
 Frequencies --     66.3028                86.5954               114.2278
 Red. masses --      5.2279                 5.5542                 2.2507
 Frc consts  --      0.0135                 0.0245                 0.0173
 IR Inten    --      9.9134                 4.8160                27.8378

                      7                      8                      9
                      A                      A                      A
 Frequencies --    119.9152               131.8877               170.2909
 Red. masses --      4.3459                 4.2279                 7.8887
 Frc consts  --      0.0368                 0.0433                 0.1348
 IR Inten    --     12.3958                 4.5508                 3.6159

                     10                     11                     12
                      A                      A                      A
 Frequencies --    177.5666               195.2634               218.0332
 Red. masses --      5.6235                 5.1573                 5.1952
 Frc consts  --      0.1045                 0.1159                 0.1455
 IR Inten    --     26.2940                 0.7584                14.7222

                     13                     14                     15
                      A                      A                      A
 Frequencies --    239.8711               251.4578               269.3353
 Red. masses --      1.5178                 2.4772                 2.7321
 Frc consts  --      0.0515                 0.0923                 0.1168
 IR Inten    --     90.2901                59.4499                 3.1207

                     16                     17                     18
                      A                      A                      A
 Frequencies --    280.3847               318.5057               326.9479
 Red. masses --      1.2549                 1.7081                 3.1766
 Frc consts  --      0.0581                 0.1021                 0.2001
 IR Inten    --    104.9594                47.9322                20.3401

                     19                     20                     21
                      A                      A                      A
 Frequencies --    341.6936               359.5067               368.0689
 Red. masses --      1.6542                 1.1220                 1.7410
 Frc consts  --      0.1138                 0.0854                 0.1390
 IR Inten    --     99.2343                54.2052                32.1477

                     22                     23                     24
                      A                      A                      A
 Frequencies --    387.9604               422.9579               465.2987
 Red. masses --      3.6666                 4.6279                 3.2154
 Frc consts  --      0.3252                 0.4878                 0.4102
 IR Inten    --     64.2084                22.2430                 4.6952

                     25                     26                     27
                      A                      A                      A
 Frequencies --    488.4469               499.5218               543.2370
 Red. masses --      3.7679                 1.8559                 3.1609
 Frc consts  --      0.5296                 0.2728                 0.5496
 IR Inten    --      8.8859                49.4447                32.7830

                     28                     29                     30
                      A                      A                      A
 Frequencies --    553.0266               573.3262               603.4001
 Red. masses --      2.7654                 5.0069                 4.0947
 Frc consts  --      0.4983                 0.9697                 0.8784
 IR Inten    --     43.1182                 7.4805                 6.2374

                     31                     32                     33
                      A                      A                      A
 Frequencies --    640.7976               674.4378               724.4532
 Red. masses --      1.1269                 1.0633                 1.0694
 Frc consts  --      0.2726                 0.2850                 0.3307
 IR Inten    --    275.2801               275.7002               140.1308

                     34                     35                     36
                      A                      A                      A
 Frequencies --    797.3572               846.4079               859.2519
 Red. masses --      2.3733                 1.4753                 2.3997
 Frc consts  --      0.8890                 0.6227                 1.0439
 IR Inten    --      9.6042               101.0635                25.8180

                     37                     38                     39
                      A                      A                      A
 Frequencies --    930.2189               952.2521              1013.1810
 Red. masses --      5.6359                 3.2651                 1.8668
 Frc consts  --      2.8733                 1.7444                 1.1291
 IR Inten    --    131.1682                45.1606                91.8807

                     40                     41                     42
                      A                      A                      A
 Frequencies --   1029.0345              1047.0729              1076.1820
 Red. masses --      3.5665                 3.2959                 6.1005
 Frc consts  --      2.2251                 2.1290                 4.1628
 IR Inten    --    100.3957                65.7768                27.1154

                     43                     44                     45
                      A                      A                      A
 Frequencies --   1088.7287              1101.7445              1111.8538
 Red. masses --      5.3175                 2.9039                 3.5532
 Frc consts  --      3.7136                 2.0768                 2.5880
 IR Inten    --     91.7345                34.3235                21.1866

                     46                     47                     48
                      A                      A                      A
 Frequencies --   1123.9252              1135.4424              1197.0379
 Red. masses --      3.7528                 2.4959                 3.7497
 Frc consts  --      2.7931                 1.8958                 3.1656
 IR Inten    --     96.6170                20.9002                95.1640

                     49                     50                     51
                      A                      A                      A
 Frequencies --   1213.8329              1250.0861              1283.0491
 Red. masses --      1.2832                 1.2016                 1.1599
 Frc consts  --      1.1139                 1.1063                 1.1250
 IR Inten    --     37.2211                 9.7268                18.0956

                     52                     53                     54
                      A                      A                      A
 Frequencies --   1287.7772              1336.9293              1349.1170
 Red. masses --      1.0949                 1.1665                 1.1639
 Frc consts  --      1.0698                 1.2285                 1.2482
 IR Inten    --    108.2246                21.5300                 4.1462

                     55                     56                     57
                      A                      A                      A
 Frequencies --   1352.6558              1364.0037              1385.9282
 Red. masses --      1.2092                 1.1936                 1.1934
 Frc consts  --      1.3035                 1.3085                 1.3506
 IR Inten    --      4.1227                 1.5451                44.1050

                     58                     59                     60
                      A                      A                      A
 Frequencies --   1395.6041              1402.3119              1425.7949
 Red. masses --      1.2335                 1.2634                 1.5111
 Frc consts  --      1.4155                 1.4638                 1.8099
 IR Inten    --     71.5624                 3.1895                16.7461

                     61                     62                     63
                      A                      A                      A
 Frequencies --   1429.6606              1442.5598              1464.5452
 Red. masses --      1.2711                 1.3321                 1.5404
 Frc consts  --      1.5307                 1.6332                 1.9467
 IR Inten    --     13.0224                 6.1075                53.3763

                     64                     65                     66
                      A                      A                      A
 Frequencies --   1474.6156              1533.8014              1548.9125
 Red. masses --      1.3959                 1.0764                 1.5013
 Frc consts  --      1.7884                 1.4920                 2.1222
 IR Inten    --     11.9289                 1.3084                30.9292

                     67                     68                     69
                      A                      A                      A
 Frequencies --   1727.2875              1730.0515              3004.6555
 Red. masses --      1.0775                 1.0770                 1.0844
 Frc consts  --      1.8940                 1.8993                 5.7681
 IR Inten    --     49.9370                58.0964                42.8387

                     70                     71                     72
                      A                      A                      A
 Frequencies --   3021.4270              3036.3314              3047.9574
 Red. masses --      1.0843                 1.0847                 1.0748
 Frc consts  --      5.8318                 5.8919                 5.8831
 IR Inten    --     23.7023                63.9630                46.6275

                     73                     74                     75
                      A                      A                      A
 Frequencies --   3048.5808              3072.8556              3170.0154
 Red. masses --      1.0819                 1.0860                 1.0952
 Frc consts  --      5.9240                 6.0416                 6.4842
 IR Inten    --     24.2757                50.2925                10.4018

                     76                     77                     78
                      A                      A                      A
 Frequencies --   3516.9344              3590.6552              3596.6033
 Red. masses --      1.0651                 1.0632                 1.0566
 Frc consts  --      7.7616                 8.0762                 8.0526
 IR Inten    --    171.9938               162.8814               412.1645

                     79                     80                     81
                      A                      A                      A
 Frequencies --   3625.2242              3667.2313              3728.9227
 Red. masses --      1.0568                 1.0665                 1.0671
 Frc consts  --      8.1828                 8.4505                 8.7422
 IR Inten    --    299.0087                68.5655                31.7787

                     82                     83                     84
                      A                      A                      A
 Frequencies --   3743.1941              3792.7086              3805.6269
 Red. masses --      1.0665                 1.0720                 1.0735
 Frc consts  --      8.8046                 9.0852                 9.1605
 IR Inten    --     23.6859                78.2386                75.5292

 - Thermochemistry -
 -------------------
 Temperature   298.150 Kelvin.  Pressure   1.00000 Atm.
 Atom     1 has atomic number  8 and mass  15.99491

 Molecular mass:   216.08452 amu.
 Principal axes and moments of inertia in atomic units:
                           1         2         3
     Eigenvalues --  2747.405023305.050724703.68120
           X            0.99958  -0.02889   0.00238
           Y            0.02888   0.99956   0.00606
           Z           -0.00255  -0.00598   0.99998
 This molecule is an asymmetric top.
 Rotational symmetry number  1.
 Warning -- assumption of classical behavior for rotation
           may cause significant error
 Rotational temperatures (Kelvin)      0.03153     0.02621     0.01841
 Rotational constants (GHZ):           0.65689     0.54606     0.38369
    1 imaginary frequencies ignored.
 Zero-point vibrational energy     651259.8 (Joules/Mol)
                                  155.65482 (Kcal/Mol)
 Warning -- explicit consideration of  29 degrees of freedom as
           vibrations may cause significant error
 Vibrational temperatures:     54.19    78.57    95.39   124.59   164.35
          (Kelvin)            172.53   189.76   245.01   255.48   280.94
                              313.70   345.12   361.79   387.51   403.41
                              458.26   470.40   491.62   517.25   529.57
                              558.19   608.54   669.46   702.77   718.70
                              781.60   795.68   824.89   868.16   921.96
                              970.36  1042.33  1147.22  1217.79  1236.27
                             1338.38  1370.08  1457.74  1480.55  1506.50
                             1548.38  1566.44  1585.16  1599.71  1617.08
                             1633.65  1722.27  1746.43  1798.59  1846.02
                             1852.82  1923.54  1941.08  1946.17  1962.49
                             1994.04  2007.96  2017.61  2051.40  2056.96
                             2075.52  2107.15  2121.64  2206.80  2228.54
                             2485.18  2489.16  4323.02  4347.15  4368.60
                             4385.33  4386.22  4421.15  4560.94  5060.08
                             5166.15  5174.70  5215.88  5276.32  5365.08
                             5385.61  5456.85  5475.44

 Zero-point correction=                           0.248052 (Hartree/Particle)
 Thermal correction to Energy=                    0.265374
 Thermal correction to Enthalpy=                  0.266318
 Thermal correction to Gibbs Free Energy=         0.203686
 Sum of electronic and zero-point Energies=           -839.732786
 Sum of electronic and thermal Energies=              -839.715464
 Sum of electronic and thermal Enthalpies=            -839.714520
 Sum of electronic and thermal Free Energies=         -839.777152

                     E (Thermal)             CV                S
                      KCal/Mol        Cal/Mol-Kelvin    Cal/Mol-Kelvin
 Total                  166.524             63.484            131.819
 Electronic               0.000              0.000              0.000
 Translational            0.889              2.981             42.015
 Rotational               0.889              2.981             32.124
 Vibrational            164.747             57.522             57.681
 Vibration     1          0.594              1.982              5.378
 Vibration     2          0.596              1.976              4.643
 Vibration     3          0.598              1.970              4.260
 Vibration     4          0.601              1.959              3.736
 Vibration     5          0.607              1.938              3.196
 Vibration     6          0.609              1.933              3.102
 Vibration     7          0.612              1.921              2.918
 Vibration     8          0.625              1.879              2.432
 Vibration     9          0.628              1.870              2.354
 Vibration    10          0.636              1.846              2.177
 Vibration    11          0.646              1.814              1.975
 Vibration    12          0.657              1.779              1.804
 Vibration    13          0.663              1.760              1.720
 Vibration    14          0.674              1.730              1.600
 Vibration    15          0.680              1.710              1.531
 Vibration    16          0.705              1.638              1.318
 Vibration    17          0.711              1.622              1.275
 Vibration    18          0.721              1.592              1.204
 Vibration    19          0.734              1.556              1.124
 Vibration    20          0.741              1.538              1.088
 Vibration    21          0.756              1.496              1.008
 Vibration    22          0.785              1.420              0.882
 Vibration    23          0.823              1.327              0.751
 Vibration    24          0.844              1.276              0.688
 Vibration    25          0.855              1.251              0.659
 Vibration    26          0.898              1.155              0.558
 Vibration    27          0.908              1.133              0.538
 Vibration    28          0.930              1.089              0.498
 Vibration    29          0.962              1.025              0.444

 Optimization completed.
    -- Stationary point found.
 Normal termination of Gaussian 09 at Mon Jan 30 07:24:55 2017.
