 Gaussian 09, Revision E.01,
 Gaussian 09:  ES64L-G09RevE.01 30-Nov-2015

 ----------------------------------------------------------------------
 # opt=(calcfc,ts,noeigentest,maxcycle=1000,cartesian) b3lyp 6-31g(d) f
 req
 ----------------------------------------------------------------------

 -------------------------------------------
 ./5/glo_2w_alpha_boat5_b3lyp_631Gd_iopt.out
 -------------------------------------------
 Symbolic Z-matrix:
 Charge =  0 Multiplicity = 1

 SCF Done:  E(RB3LYP) =  -840.000706068     A.U. after   14 cycles
 Optimization completed.
    -- Stationary point found.
 Normal termination of Gaussian 09 at Mon Jan 30 06:53:37 2017.

 --------------------------------------------------------------------
 #N Geom=AllCheck Guess=TCheck SCRF=Check GenChk RB3LYP/6-31G(d) Freq
 --------------------------------------------------------------------

 Structure from the checkpoint file:  "/scratch/10499767.yak.local/Gau-32720.chk"
 -------------------------------------------
 ./5/glo_2w_alpha_boat5_b3lyp_631Gd_iopt.out
 -------------------------------------------
 Charge =  0 Multiplicity = 1

                         Standard orientation:
 ---------------------------------------------------------------------
 Center     Atomic      Atomic             Coordinates (Angstroms)
 Number     Number       Type             X           Y           Z
 ---------------------------------------------------------------------
      1          8           0        0.479490   -0.662290   -0.802101
      2          6           0       -1.074410   -0.228781    1.083039
      3          6           0       -0.489540    1.599369   -0.654101
      4          6           0       -1.387800    1.193609    0.541119
      5          6           0        0.772700    0.736930   -0.738901
      6          6           0       -0.647019   -1.180141   -0.037061
      7          1           0       -1.208731    1.897609    1.365749
      8          1           0       -0.272689   -2.096941    0.438879
      9          1           0       -1.988690   -0.643911    1.521379
     10          1           0       -1.075780    1.448249   -1.565131
     11          6           0       -1.771359   -1.566541   -1.010801
     12          1           0       -1.332229   -2.126121   -1.849581
     13          1           0       -2.261710   -0.676632   -1.409151
     14          8           0       -2.791349   -2.306772   -0.350471
     15          1           0       -2.428279   -3.177122   -0.122911
     16          8           0       -0.122351    2.965099   -0.638641
     17          1           0        0.591679    3.034220    0.019409
     18          8           0       -2.726580    1.301638    0.062119
     19          1           0       -3.328410    1.117638    0.800839
     20          8           0       -0.112760   -0.204131    2.127029
     21          1           0        0.668890    0.266400    1.770329
     22          1           0        1.312690    0.942620   -1.668951
     23          8           0        1.575230    1.078750    0.368659
     24          1           0        3.737121   -0.836809   -0.037811
     25          8           0        2.660161   -2.218880    0.024369
     26          1           0        2.423471   -2.305000    0.961559
     27          1           0        1.888761   -1.754030   -0.372861
     28          8           0        4.025280    0.112601   -0.066891
     29          1           0        4.436620    0.233661   -0.935511
     30          1           0        2.524890    0.821370    0.191369
 ---------------------------------------------------------------------

 SCF Done:  E(RB3LYP) =  -840.000706068     A.U. after    1 cycles

 The electronic state is 1-A.
 Alpha  occ. eigenvalues --  -19.18453 -19.16724 -19.16619 -19.16317 -19.15764
 Alpha  occ. eigenvalues --  -19.15385 -19.14608 -19.13590 -10.30190 -10.25152
 Alpha  occ. eigenvalues --  -10.24306 -10.24108 -10.24052 -10.23743  -1.08513
 Alpha  occ. eigenvalues --   -1.03309  -1.03208  -1.02809  -1.02439  -1.01628
 Alpha  occ. eigenvalues --   -1.00998  -1.00540  -0.78314  -0.76943  -0.69099
 Alpha  occ. eigenvalues --   -0.66109  -0.63558  -0.58897  -0.55271  -0.54551
 Alpha  occ. eigenvalues --   -0.54413  -0.53652  -0.52212  -0.50963  -0.49977
 Alpha  occ. eigenvalues --   -0.48722  -0.46530  -0.45127  -0.43249  -0.42447
 Alpha  occ. eigenvalues --   -0.42209  -0.41691  -0.40645  -0.38767  -0.38613
 Alpha  occ. eigenvalues --   -0.36705  -0.36482  -0.35115  -0.33587  -0.33197
 Alpha  occ. eigenvalues --   -0.32283  -0.31736  -0.31064  -0.30639  -0.29342
 Alpha  occ. eigenvalues --   -0.26879  -0.26758  -0.25314
 Alpha virt. eigenvalues --    0.03787   0.05443   0.06473   0.07557   0.09525
 Alpha virt. eigenvalues --    0.09789   0.11268   0.12050   0.13930   0.14286
 Alpha virt. eigenvalues --    0.14923   0.15475   0.16645   0.18729   0.19392

 Mulliken charges:
               1
     1  O   -0.546149
     2  C    0.107480
     3  C    0.110815
     4  C    0.089777
     5  C    0.283771
     6  C    0.089063
     7  H    0.142521
     8  H    0.119788
     9  H    0.146573
    10  H    0.168974
    11  C   -0.061070
    12  H    0.135732
    13  H    0.182687
    14  O   -0.610276
    15  H    0.392557
    16  O   -0.630180
    17  H    0.401205
    18  O   -0.626586
    19  H    0.398709
    20  O   -0.671361
    21  H    0.418889
    22  H    0.146961
    23  O   -0.686168
    24  H    0.431303
    25  O   -0.818470
    26  H    0.406417
    27  H    0.441541
    28  O   -0.819413
    29  H    0.401970
    30  H    0.452940
 Sum of Mulliken charges =  -0.00000

 Dipole moment (field-independent basis, Debye):
    X=              1.4557    Y=             -2.1123    Z=             -0.4896  Tot=              2.6116
 Quadrupole moment (field-independent basis, Debye-Ang):
   XX=            -84.2616   YY=            -85.5066   ZZ=            -84.3892
   XY=              4.1439   XZ=             -8.8983   YZ=              1.2104

  Exact polarizability: 103.146   4.787  95.354  -3.062  -2.354  82.527
 Approx polarizability: 134.131   5.458 127.364  -1.466  -4.513 123.416

 ******    1 imaginary frequencies (negative Signs) ******

                      1                      2                      3
                      A                      A                      A
 Frequencies --    -41.8497                54.5149                58.2881
 Red. masses --      5.5123                 5.8066                 5.9265
 Frc consts  --      0.0057                 0.0102                 0.0119
 IR Inten    --      2.1599                 1.2660                 0.8536

                      4                      5                      6
                      A                      A                      A
 Frequencies --     76.6206                85.6055               139.4315
 Red. masses --      4.5304                 6.3646                 4.4884
 Frc consts  --      0.0157                 0.0275                 0.0514
 IR Inten    --      4.1984                 1.4360                 2.3945

                      7                      8                      9
                      A                      A                      A
 Frequencies --    170.3405               181.7368               196.2586
 Red. masses --      5.3825                 5.0467                 3.2128
 Frc consts  --      0.0920                 0.0982                 0.0729
 IR Inten    --     11.9010                 6.0828                 9.0768

                     10                     11                     12
                      A                      A                      A
 Frequencies --    237.1683               252.3569               275.2597
 Red. masses --      6.2535                 4.8760                 4.2631
 Frc consts  --      0.2072                 0.1830                 0.1903
 IR Inten    --      5.8331                 6.5884                 4.9878

                     13                     14                     15
                      A                      A                      A
 Frequencies --    283.7574               293.7761               297.6439
 Red. masses --      5.8362                 2.3786                 1.4238
 Frc consts  --      0.2769                 0.1210                 0.0743
 IR Inten    --     22.0250                25.2127               125.9215

                     16                     17                     18
                      A                      A                      A
 Frequencies --    330.2262               338.2959               359.5675
 Red. masses --      1.4300                 1.3852                 1.5144
 Frc consts  --      0.0919                 0.0934                 0.1154
 IR Inten    --    130.9093               126.9243                25.5846

                     19                     20                     21
                      A                      A                      A
 Frequencies --    365.6497               371.5926               384.0522
 Red. masses --      2.1801                 2.3937                 1.2662
 Frc consts  --      0.1717                 0.1947                 0.1100
 IR Inten    --     65.4929                 5.3114                44.5635

                     22                     23                     24
                      A                      A                      A
 Frequencies --    411.1589               453.9194               484.8081
 Red. masses --      2.8905                 3.6310                 2.6532
 Frc consts  --      0.2879                 0.4408                 0.3674
 IR Inten    --     10.9134                33.0564                70.9917

                     25                     26                     27
                      A                      A                      A
 Frequencies --    487.2880               520.4460               564.6319
 Red. masses --      1.6823                 6.2208                 1.1014
 Frc consts  --      0.2354                 0.9928                 0.2069
 IR Inten    --     61.9413                 8.2668                16.1880

                     28                     29                     30
                      A                      A                      A
 Frequencies --    573.7362               594.1805               650.3548
 Red. masses --      4.2947                 4.3158                 1.1198
 Frc consts  --      0.8329                 0.8977                 0.2790
 IR Inten    --     35.3642                14.6174               121.2880

                     31                     32                     33
                      A                      A                      A
 Frequencies --    689.2921               703.0986               810.7072
 Red. masses --      3.4699                 1.2339                 3.1097
 Frc consts  --      0.9714                 0.3594                 1.2042
 IR Inten    --     13.0710               119.5211                61.4020

                     34                     35                     36
                      A                      A                      A
 Frequencies --    838.1947               892.5058               898.0541
 Red. masses --      3.2429                 1.7263                 1.4513
 Frc consts  --      1.3424                 0.8102                 0.6896
 IR Inten    --     25.8803                62.2473               142.9043

                     37                     38                     39
                      A                      A                      A
 Frequencies --    956.8164               993.0382              1014.6454
 Red. masses --      3.4528                 2.2175                 3.5783
 Frc consts  --      1.8624                 1.2884                 2.1705
 IR Inten    --      5.8867                40.8692                76.1335

                     40                     41                     42
                      A                      A                      A
 Frequencies --   1055.2424              1074.1732              1089.0716
 Red. masses --      2.9065                 3.9860                 3.3361
 Frc consts  --      1.9069                 2.7098                 2.3313
 IR Inten    --     35.9449               227.8036               223.7775

                     43                     44                     45
                      A                      A                      A
 Frequencies --   1092.2312              1099.2829              1108.6214
 Red. masses --      2.6546                 1.3884                 3.1794
 Frc consts  --      1.8659                 0.9885                 2.3023
 IR Inten    --      9.7959                29.4953                11.7385

                     46                     47                     48
                      A                      A                      A
 Frequencies --   1121.6437              1123.7397              1152.4955
 Red. masses --      3.0290                 2.5566                 2.8380
 Frc consts  --      2.2452                 1.9021                 2.2209
 IR Inten    --    152.7757                 3.1275                81.6669

                     49                     50                     51
                      A                      A                      A
 Frequencies --   1206.6047              1229.8914              1267.3547
 Red. masses --      1.3203                 1.1280                 1.4430
 Frc consts  --      1.1326                 1.0053                 1.3656
 IR Inten    --     12.5175                55.2839                 3.7073

                     52                     53                     54
                      A                      A                      A
 Frequencies --   1308.0436              1318.9936              1334.6764
 Red. masses --      1.3180                 1.3278                 1.3525
 Frc consts  --      1.3286                 1.3610                 1.4195
 IR Inten    --     13.2635                23.6581                63.1789

                     55                     56                     57
                      A                      A                      A
 Frequencies --   1351.7879              1361.3471              1371.1640
 Red. masses --      1.2207                 1.2630                 1.2403
 Frc consts  --      1.3142                 1.3791                 1.3739
 IR Inten    --      8.9637                 1.9889                 3.7092

                     58                     59                     60
                      A                      A                      A
 Frequencies --   1400.2748              1404.0756              1424.3114
 Red. masses --      1.2162                 1.5286                 1.2275
 Frc consts  --      1.4050                 1.7755                 1.4672
 IR Inten    --     30.5335                 8.2998                12.7389

                     61                     62                     63
                      A                      A                      A
 Frequencies --   1442.6325              1451.4108              1460.4574
 Red. masses --      1.2510                 1.4074                 1.2877
 Frc consts  --      1.5340                 1.7468                 1.6183
 IR Inten    --     30.4979                18.0488                34.1746

                     64                     65                     66
                      A                      A                      A
 Frequencies --   1493.8693              1519.0352              1529.9535
 Red. masses --      1.2776                 1.2357                 1.0881
 Frc consts  --      1.6798                 1.6799                 1.5006
 IR Inten    --     13.4807                89.2911                 7.1685

                     67                     68                     69
                      A                      A                      A
 Frequencies --   1736.5153              1740.4479              3027.3979
 Red. masses --      1.0681                 1.0779                 1.0750
 Frc consts  --      1.8976                 1.9237                 5.8052
 IR Inten    --     30.6719               146.3084                47.6480

                     70                     71                     72
                      A                      A                      A
 Frequencies --   3033.0675              3035.8927              3083.9619
 Red. masses --      1.0831                 1.0839                 1.0860
 Frc consts  --      5.8707                 5.8858                 6.0855
 IR Inten    --     61.0650                12.4389                41.1286

                     73                     74                     75
                      A                      A                      A
 Frequencies --   3086.8065              3106.2323              3151.4959
 Red. masses --      1.0874                 1.0870                 1.0950
 Frc consts  --      6.1045                 6.1796                 6.4079
 IR Inten    --     19.5507                23.2266                 9.7587

                     76                     77                     78
                      A                      A                      A
 Frequencies --   3202.0707              3378.2655              3519.6158
 Red. masses --      1.0704                 1.0617                 1.0584
 Frc consts  --      6.4663                 7.1391                 7.7249
 IR Inten    --    977.0652               842.3805               563.3386

                     79                     80                     81
                      A                      A                      A
 Frequencies --   3574.0159              3698.4660              3737.9544
 Red. masses --      1.0658                 1.0650                 1.0663
 Frc consts  --      8.0211                 8.5834                 8.7779
 IR Inten    --    172.9316                33.7177                14.7655

                     82                     83                     84
                      A                      A                      A
 Frequencies --   3738.9183              3783.4069              3802.6199
 Red. masses --      1.0661                 1.0692                 1.0676
 Frc consts  --      8.7811                 9.0169                 9.0957
 IR Inten    --     16.0329                60.5541                50.4055

 - Thermochemistry -
 -------------------
 Temperature   298.150 Kelvin.  Pressure   1.00000 Atm.
 Atom     1 has atomic number  8 and mass  15.99491

 Molecular mass:   216.08452 amu.
 Principal axes and moments of inertia in atomic units:
                           1         2         3
     Eigenvalues --  2364.893723529.652444780.87549
           X            0.99999   0.00182  -0.00442
           Y           -0.00179   0.99998   0.00558
           Z            0.00443  -0.00558   0.99997
 This molecule is an asymmetric top.
 Rotational symmetry number  1.
 Warning -- assumption of classical behavior for rotation
           may cause significant error
 Rotational temperatures (Kelvin)      0.03662     0.02454     0.01812
 Rotational constants (GHZ):           0.76314     0.51131     0.37749
    1 imaginary frequencies ignored.
 Zero-point vibrational energy     655066.4 (Joules/Mol)
                                  156.56463 (Kcal/Mol)
 Warning -- explicit consideration of  28 degrees of freedom as
           vibrations may cause significant error
 Vibrational temperatures:     78.43    83.86   110.24   123.17   200.61
          (Kelvin)            245.08   261.48   282.37   341.23   363.08
                              396.04   408.26   422.68   428.24   475.12
                              486.73   517.34   526.09   534.64   552.56
                              591.57   653.09   697.53   701.10   748.80
                              812.38   825.48   854.89   935.71   991.74
                             1011.60  1166.43  1205.97  1284.12  1292.10
                             1376.64  1428.76  1459.85  1518.26  1545.49
                             1566.93  1571.48  1581.62  1595.06  1613.79
                             1616.81  1658.18  1736.03  1769.54  1823.44
                             1881.98  1897.74  1920.30  1944.92  1958.67
                             1972.80  2014.68  2020.15  2049.26  2075.62
                             2088.25  2101.27  2149.34  2185.55  2201.26
                             2498.46  2504.11  4355.74  4363.90  4367.97
                             4437.13  4441.22  4469.17  4534.29  4607.06
                             4860.56  5063.94  5142.21  5321.26  5378.08
                             5379.46  5443.47  5471.12

 Zero-point correction=                           0.249502 (Hartree/Particle)
 Thermal correction to Energy=                    0.265667
 Thermal correction to Enthalpy=                  0.266611
 Thermal correction to Gibbs Free Energy=         0.207196
 Sum of electronic and zero-point Energies=           -839.751204
 Sum of electronic and thermal Energies=              -839.735039
 Sum of electronic and thermal Enthalpies=            -839.734095
 Sum of electronic and thermal Free Energies=         -839.793510

                     E (Thermal)             CV                S
                      KCal/Mol        Cal/Mol-Kelvin    Cal/Mol-Kelvin
 Total                  166.708             61.523            125.048
 Electronic               0.000              0.000              0.000
 Translational            0.889              2.981             42.015
 Rotational               0.889              2.981             32.057
 Vibrational            164.931             55.562             50.977
 Vibration     1          0.596              1.976              4.647
 Vibration     2          0.596              1.974              4.514
 Vibration     3          0.599              1.965              3.976
 Vibration     4          0.601              1.959              3.758
 Vibration     5          0.615              1.914              2.812
 Vibration     6          0.625              1.879              2.432
 Vibration     7          0.630              1.865              2.311
 Vibration     8          0.636              1.845              2.168
 Vibration     9          0.656              1.784              1.824
 Vibration    10          0.664              1.759              1.714
 Vibration    11          0.677              1.719              1.563
 Vibration    12          0.682              1.704              1.511
 Vibration    13          0.689              1.685              1.452
 Vibration    14          0.691              1.678              1.430
 Vibration    15          0.713              1.615              1.259
 Vibration    16          0.719              1.599              1.220
 Vibration    17          0.734              1.556              1.124
 Vibration    18          0.739              1.543              1.098
 Vibration    19          0.743              1.531              1.073
 Vibration    20          0.753              1.504              1.023
 Vibration    21          0.775              1.446              0.923
 Vibration    22          0.812              1.352              0.784
 Vibration    23          0.841              1.284              0.697
 Vibration    24          0.843              1.278              0.691
 Vibration    25          0.875              1.205              0.609
 Vibration    26          0.920              1.108              0.515
 Vibration    27          0.930              1.088              0.497
 Vibration    28          0.952              1.044              0.460

 Optimization completed.
    -- Stationary point found.
 Normal termination of Gaussian 09 at Mon Jan 30 07:15:32 2017.
