 Gaussian 09, Revision E.01,
 Gaussian 09:  ES64L-G09RevE.01 30-Nov-2015

 ----------------------------------------------------------------------
 # opt=(calcfc,ts,noeigentest,maxcycle=1000,cartesian) b3lyp 6-31g(d) f
 req
 ----------------------------------------------------------------------

 -------------------------------------------
 ./5/glo_1w_alpha_boat5_b3lyp_631Gd_iopt.out
 -------------------------------------------
 Symbolic Z-matrix:
 Charge =  0 Multiplicity = 1

 SCF Done:  E(RB3LYP) =  -839.986396185     A.U. after   14 cycles
 SCF Done:  E(RB3LYP) =  -839.986481199     A.U. after   10 cycles
 SCF Done:  E(RB3LYP) =  -839.986513407     A.U. after   10 cycles
 SCF Done:  E(RB3LYP) =  -839.986525922     A.U. after   10 cycles
 SCF Done:  E(RB3LYP) =  -839.986533485     A.U. after   10 cycles
 SCF Done:  E(RB3LYP) =  -839.986523133     A.U. after   10 cycles
 SCF Done:  E(RB3LYP) =  -839.986496704     A.U. after   11 cycles
 SCF Done:  E(RB3LYP) =  -839.986538094     A.U. after   11 cycles
 SCF Done:  E(RB3LYP) =  -839.986489885     A.U. after   11 cycles
 SCF Done:  E(RB3LYP) =  -839.986586673     A.U. after   11 cycles
 SCF Done:  E(RB3LYP) =  -839.986350674     A.U. after   11 cycles
 SCF Done:  E(RB3LYP) =  -839.986358581     A.U. after    9 cycles
 SCF Done:  E(RB3LYP) =  -839.986359508     A.U. after    9 cycles
 SCF Done:  E(RB3LYP) =  -839.986360304     A.U. after    7 cycles
 SCF Done:  E(RB3LYP) =  -839.986360546     A.U. after    8 cycles
 SCF Done:  E(RB3LYP) =  -839.986360746     A.U. after    7 cycles
 SCF Done:  E(RB3LYP) =  -839.986360132     A.U. after    9 cycles
 SCF Done:  E(RB3LYP) =  -839.986361049     A.U. after    8 cycles
 SCF Done:  E(RB3LYP) =  -839.986361011     A.U. after    7 cycles
 Optimization completed.
    -- Stationary point found.
 Normal termination of Gaussian 09 at Mon Jan 30 09:55:33 2017.

 --------------------------------------------------------------------
 #N Geom=AllCheck Guess=TCheck SCRF=Check GenChk RB3LYP/6-31G(d) Freq
 --------------------------------------------------------------------

 Structure from the checkpoint file:  "/scratch/10499769.yak.local/Gau-27112.chk"
 -------------------------------------------
 ./5/glo_1w_alpha_boat5_b3lyp_631Gd_iopt.out
 -------------------------------------------
 Charge =  0 Multiplicity = 1

                         Standard orientation:
 ---------------------------------------------------------------------
 Center     Atomic      Atomic             Coordinates (Angstroms)
 Number     Number       Type             X           Y           Z
 ---------------------------------------------------------------------
      1          8           0        1.530723    0.414778   -0.696298
      2          6           0        0.244631   -0.837693    1.035384
      3          6           0       -0.898657    0.371959   -0.930340
      4          6           0       -1.097820   -0.488225    0.329461
      5          6           0        0.358220    1.230493   -0.796476
      6          6           0        1.442631   -0.811724    0.076319
      7          1           0       -1.686178    0.081465    1.060023
      8          1           0        2.349081   -0.834395    0.696012
      9          1           0        0.183814   -1.858474    1.429690
     10          1           0       -0.730377   -0.302479   -1.775761
     11          6           0        1.483422   -2.014918   -0.881681
     12          1           0        2.263508   -1.839110   -1.636511
     13          1           0        0.529806   -2.134337   -1.401600
     14          8           0        1.686062   -3.232685   -0.174332
     15          1           0        2.588095   -3.223666    0.182701
     16          8           0       -2.032304    1.135627   -1.284802
     17          1           0       -2.368980    1.582841   -0.489207
     18          8           0       -1.839238   -1.635548   -0.099072
     19          1           0       -1.963823   -2.212967    0.671356
     20          8           0        0.462749    0.007415    2.154400
     21          1           0        0.398152    0.919808    1.803962
     22          1           0        0.512094    1.822029   -1.704528
     23          8           0        0.215734    2.083682    0.321021
     24          1           0        1.027898    2.646061    0.338311
     25          8           0       -4.149212    0.477619    0.423418
     26          1           0       -4.504198   -0.089917    1.123069
     27          1           0       -3.727220   -0.137666   -0.200319
     28          8           0        2.854700    2.786836    0.122593
     29          1           0        3.283860    2.710071    0.988662
     30          1           0        2.816193    1.869591   -0.217287
 ---------------------------------------------------------------------

 SCF Done:  E(RB3LYP) =  -839.986361011     A.U. after    1 cycles

 The electronic state is 1-A.
 Alpha  occ. eigenvalues --  -19.17807 -19.16847 -19.16618 -19.16446 -19.15982
 Alpha  occ. eigenvalues --  -19.14663 -19.13826 -19.13614 -10.29467 -10.25053
 Alpha  occ. eigenvalues --  -10.24488 -10.24391 -10.24353 -10.24018  -1.08219
 Alpha  occ. eigenvalues --   -1.04017  -1.03212  -1.02525  -1.02133  -1.01193
 Alpha  occ. eigenvalues --   -1.01026  -0.99549  -0.78406  -0.77211  -0.69229
 Alpha  occ. eigenvalues --   -0.66008  -0.63753  -0.58724  -0.55605  -0.54284
 Alpha  occ. eigenvalues --   -0.53919  -0.52423  -0.51818  -0.50794  -0.49042
 Alpha  occ. eigenvalues --   -0.48826  -0.46340  -0.45053  -0.43543  -0.42540
 Alpha  occ. eigenvalues --   -0.41948  -0.41738  -0.39818  -0.38971  -0.37869
 Alpha  occ. eigenvalues --   -0.37141  -0.36160  -0.35508  -0.34325  -0.32289
 Alpha  occ. eigenvalues --   -0.31871  -0.30661  -0.30343  -0.29822  -0.29185
 Alpha  occ. eigenvalues --   -0.27623  -0.26387  -0.25647
 Alpha virt. eigenvalues --    0.04519   0.04831   0.05754   0.08193   0.09493
 Alpha virt. eigenvalues --    0.09744   0.11261   0.12478   0.13294   0.13979
 Alpha virt. eigenvalues --    0.14164   0.15488   0.16243   0.18003   0.18158

 Mulliken charges:
               1
     1  O   -0.542269
     2  C    0.103594
     3  C    0.116549
     4  C    0.058155
     5  C    0.292165
     6  C    0.095769
     7  H    0.153081
     8  H    0.126672
     9  H    0.148405
    10  H    0.162691
    11  C   -0.064810
    12  H    0.139177
    13  H    0.175491
    14  O   -0.610322
    15  H    0.392610
    16  O   -0.633294
    17  H    0.419661
    18  O   -0.639594
    19  H    0.397725
    20  O   -0.665693
    21  H    0.411751
    22  H    0.158963
    23  O   -0.661590
    24  H    0.432048
    25  O   -0.796145
    26  H    0.386116
    27  H    0.413444
    28  O   -0.795289
    29  H    0.402229
    30  H    0.422712
 Sum of Mulliken charges =  -0.00000

 Dipole moment (field-independent basis, Debye):
    X=              2.8934    Y=             -1.8991    Z=              1.9454  Tot=              3.9703
 Quadrupole moment (field-independent basis, Debye-Ang):
   XX=            -75.1727   YY=            -88.4340   ZZ=            -86.5709
   XY=              5.5619   XZ=             -3.7395   YZ=              0.5336

  Exact polarizability:  98.822  -1.485  97.485   0.191  -2.069  83.802
 Approx polarizability: 126.170  -1.781 132.865   1.312  -1.707 125.345

 ******    1 imaginary frequencies (negative Signs) ******

                      1                      2                      3
                      A                      A                      A
 Frequencies --   -173.2359                40.2187                42.2156
 Red. masses --      1.2021                 4.9305                 5.3772
 Frc consts  --      0.0213                 0.0047                 0.0056
 IR Inten    --    123.1502                 2.9230                 4.9790

                      4                      5                      6
                      A                      A                      A
 Frequencies --     71.0541                74.2058                90.9992
 Red. masses --      5.7146                 5.7449                 3.3777
 Frc consts  --      0.0170                 0.0186                 0.0165
 IR Inten    --      1.9997                 0.7630                13.6046

                      7                      8                      9
                      A                      A                      A
 Frequencies --    127.0444               132.1927               137.5824
 Red. masses --      3.6283                 2.2991                 2.7948
 Frc consts  --      0.0345                 0.0237                 0.0312
 IR Inten    --     80.6749                28.9981                49.0578

                     10                     11                     12
                      A                      A                      A
 Frequencies --    154.2624               183.0440               183.7357
 Red. masses --      2.2037                 4.9250                 4.1155
 Frc consts  --      0.0309                 0.0972                 0.0819
 IR Inten    --     27.3500                10.4107                 3.0083

                     13                     14                     15
                      A                      A                      A
 Frequencies --    238.4550               245.4782               280.3054
 Red. masses --      6.0787                 4.8487                 2.7551
 Frc consts  --      0.2036                 0.1721                 0.1275
 IR Inten    --      4.9687                 8.7775                11.2026

                     16                     17                     18
                      A                      A                      A
 Frequencies --    289.0966               293.1700               315.9424
 Red. masses --      1.6004                 3.5080                 2.2379
 Frc consts  --      0.0788                 0.1776                 0.1316
 IR Inten    --    113.7616                30.7540                52.7161

                     19                     20                     21
                      A                      A                      A
 Frequencies --    337.6732               357.9313               373.7171
 Red. masses --      1.6923                 2.8255                 1.2673
 Frc consts  --      0.1137                 0.2133                 0.1043
 IR Inten    --     73.4505                34.2671               251.2301

                     22                     23                     24
                      A                      A                      A
 Frequencies --    381.6877               394.2431               417.8230
 Red. masses --      1.2194                 1.3424                 3.1202
 Frc consts  --      0.1047                 0.1229                 0.3209
 IR Inten    --     48.7720               141.6994                95.3015

                     25                     26                     27
                      A                      A                      A
 Frequencies --    454.2992               497.0604               519.7959
 Red. masses --      3.9566                 5.0269                 5.1848
 Frc consts  --      0.4811                 0.7318                 0.8254
 IR Inten    --     26.7930                19.2856                 6.8394

                     28                     29                     30
                      A                      A                      A
 Frequencies --    562.6381               595.9688               601.4763
 Red. masses --      4.1942                 1.5520                 1.8498
 Frc consts  --      0.7823                 0.3248                 0.3943
 IR Inten    --     44.5778               103.9275                12.6241

                     31                     32                     33
                      A                      A                      A
 Frequencies --    620.5921               661.7250               694.0726
 Red. masses --      1.1389                 1.2813                 3.1074
 Frc consts  --      0.2584                 0.3306                 0.8820
 IR Inten    --     66.0227               253.1653                26.8410

                     34                     35                     36
                      A                      A                      A
 Frequencies --    808.4906               823.5855               877.4827
 Red. masses --      4.2613                 2.7032                 1.2127
 Frc consts  --      1.6411                 1.0803                 0.5502
 IR Inten    --     82.7304                 7.1900                74.2328

                     37                     38                     39
                      A                      A                      A
 Frequencies --    904.2221               970.7638               990.8533
 Red. masses --      2.9192                 3.1054                 2.1512
 Frc consts  --      1.4062                 1.7242                 1.2444
 IR Inten    --     37.0292                35.0701                17.4383

                     40                     41                     42
                      A                      A                      A
 Frequencies --   1009.0474              1051.2184              1074.1129
 Red. masses --      3.7493                 2.7919                 4.0882
 Frc consts  --      2.2492                 1.8178                 2.7789
 IR Inten    --     66.2985                28.8927               215.5654

                     43                     44                     45
                      A                      A                      A
 Frequencies --   1091.0500              1092.9473              1108.8850
 Red. masses --      3.5663                 5.0899                 3.4977
 Frc consts  --      2.5013                 3.5823                 2.5340
 IR Inten    --     33.5151                97.8122                37.4636

                     46                     47                     48
                      A                      A                      A
 Frequencies --   1122.3797              1140.9373              1160.8973
 Red. masses --      2.3323                 3.8733                 2.7976
 Frc consts  --      1.7311                 2.9707                 2.2214
 IR Inten    --     78.1626                75.8867                70.2365

                     49                     50                     51
                      A                      A                      A
 Frequencies --   1202.1797              1222.9956              1281.3337
 Red. masses --      1.3294                 1.1439                 1.4614
 Frc consts  --      1.1320                 1.0081                 1.4137
 IR Inten    --     19.9147                52.8548                 8.1884

                     52                     53                     54
                      A                      A                      A
 Frequencies --   1313.0851              1324.2643              1335.5411
 Red. masses --      1.1774                 1.4008                 1.2856
 Frc consts  --      1.1961                 1.4473                 1.3511
 IR Inten    --      8.9232                56.3175                11.5435

                     55                     56                     57
                      A                      A                      A
 Frequencies --   1349.9601              1362.7096              1372.1364
 Red. masses --      1.2376                 1.2601                 1.2544
 Frc consts  --      1.3289                 1.3787                 1.3915
 IR Inten    --      5.6585                 1.0655                 5.0610

                     58                     59                     60
                      A                      A                      A
 Frequencies --   1401.3542              1407.2638              1422.8377
 Red. masses --      1.3064                 1.3733                 1.2444
 Frc consts  --      1.5116                 1.6024                 1.4843
 IR Inten    --     29.9808                10.1431                 8.6835

                     61                     62                     63
                      A                      A                      A
 Frequencies --   1436.5994              1454.0668              1469.3867
 Red. masses --      1.2515                 1.3094                 1.3505
 Frc consts  --      1.5218                 1.6311                 1.7180
 IR Inten    --     41.9557                10.8646                29.6935

                     64                     65                     66
                      A                      A                      A
 Frequencies --   1502.0314              1532.6698              1535.8658
 Red. masses --      1.2042                 1.1011                 1.3278
 Frc consts  --      1.6007                 1.5240                 1.8453
 IR Inten    --     48.8762                 0.9130                64.6724

                     67                     68                     69
                      A                      A                      A
 Frequencies --   1694.0170              1726.9899              3030.6761
 Red. masses --      1.0846                 1.0755                 1.0722
 Frc consts  --      1.8338                 1.8900                 5.8024
 IR Inten    --     70.1767                48.5228                48.5746

                     70                     71                     72
                      A                      A                      A
 Frequencies --   3039.5435              3050.0035              3078.5487
 Red. masses --      1.0838                 1.0850                 1.0860
 Frc consts  --      5.8997                 5.9466                 6.0642
 IR Inten    --     41.5465                11.2950                26.7998

                     73                     74                     75
                      A                      A                      A
 Frequencies --   3092.8753              3101.4992              3139.6250
 Red. masses --      1.0864                 1.0872                 1.0951
 Frc consts  --      6.1230                 6.1620                 6.3600
 IR Inten    --     23.9069                32.4180                17.4434

                     76                     77                     78
                      A                      A                      A
 Frequencies --   3439.9757              3581.3888              3611.3012
 Red. masses --      1.0664                 1.0652                 1.0544
 Frc consts  --      7.4347                 8.0496                 8.1017
 IR Inten    --    448.9461               148.3350               264.5177

                     79                     80                     81
                      A                      A                      A
 Frequencies --   3705.7191              3718.5809              3732.6135
 Red. masses --      1.0486                 1.0645                 1.0662
 Frc consts  --      8.4844                 8.6725                 8.7519
 IR Inten    --     10.9583                77.3829                14.4847

                     82                     83                     84
                      A                      A                      A
 Frequencies --   3737.5528              3800.9758              3831.8541
 Red. masses --      1.0662                 1.0734                 1.0800
 Frc consts  --      8.7756                 9.1368                 9.3430
 IR Inten    --     14.5749                77.1576                50.9909

 - Thermochemistry -
 -------------------
 Temperature   298.150 Kelvin.  Pressure   1.00000 Atm.
 Atom     1 has atomic number  8 and mass  15.99491

 Molecular mass:   216.08452 amu.
 Principal axes and moments of inertia in atomic units:
                           1         2         3
     Eigenvalues --  2667.517223402.078424810.78937
           X            0.99980   0.01869  -0.00691
           Y           -0.01865   0.99981   0.00542
           Z            0.00701  -0.00529   0.99996
 This molecule is an asymmetric top.
 Rotational symmetry number  1.
 Warning -- assumption of classical behavior for rotation
           may cause significant error
 Rotational temperatures (Kelvin)      0.03247     0.02546     0.01800
 Rotational constants (GHZ):           0.67656     0.53048     0.37514
    1 imaginary frequencies ignored.
 Zero-point vibrational energy     649791.2 (Joules/Mol)
                                  155.30382 (Kcal/Mol)
 Warning -- explicit consideration of  30 degrees of freedom as
           vibrations may cause significant error
 Vibrational temperatures:     57.87    60.74   102.23   106.77   130.93
          (Kelvin)            182.79   190.20   197.95   221.95   263.36
                              264.35   343.08   353.19   403.30   415.94
                              421.81   454.57   485.84   514.98   537.69
                              549.16   567.23   601.15   653.63   715.16
                              747.87   809.51   857.47   865.39   892.89
                              952.07   998.61  1163.24  1184.95  1262.50
                             1300.97  1396.71  1425.62  1451.79  1512.47
                             1545.41  1569.78  1572.51  1595.44  1614.85
                             1641.55  1670.27  1729.67  1759.62  1843.55
                             1889.23  1905.32  1921.54  1942.29  1960.63
                             1974.20  2016.23  2024.74  2047.14  2066.94
                             2092.08  2114.12  2161.09  2205.17  2209.77
                             2437.31  2484.75  4360.46  4373.22  4388.27
                             4429.34  4449.95  4462.36  4517.21  4949.35
                             5152.81  5195.85  5331.70  5350.20  5370.39
                             5377.50  5468.75  5513.18

 Zero-point correction=                           0.247492 (Hartree/Particle)
 Thermal correction to Energy=                    0.265220
 Thermal correction to Enthalpy=                  0.266164
 Thermal correction to Gibbs Free Energy=         0.202291
 Sum of electronic and zero-point Energies=           -839.738869
 Sum of electronic and thermal Energies=              -839.721141
 Sum of electronic and thermal Enthalpies=            -839.720197
 Sum of electronic and thermal Free Energies=         -839.784070

                     E (Thermal)             CV                S
                      KCal/Mol        Cal/Mol-Kelvin    Cal/Mol-Kelvin
 Total                  166.428             64.148            134.431
 Electronic               0.000              0.000              0.000
 Translational            0.889              2.981             42.015
 Rotational               0.889              2.981             32.146
 Vibrational            164.650             58.186             60.270
 Vibration     1          0.594              1.981              5.248
 Vibration     2          0.595              1.980              5.152
 Vibration     3          0.598              1.968              4.124
 Vibration     4          0.599              1.966              4.039
 Vibration     5          0.602              1.956              3.638
 Vibration     6          0.611              1.926              2.990
 Vibration     7          0.612              1.921              2.914
 Vibration     8          0.614              1.916              2.837
 Vibration     9          0.620              1.898              2.619
 Vibration    10          0.631              1.863              2.297
 Vibration    11          0.631              1.862              2.290
 Vibration    12          0.656              1.782              1.814
 Vibration    13          0.660              1.770              1.763
 Vibration    14          0.680              1.710              1.532
 Vibration    15          0.686              1.694              1.479
 Vibration    16          0.688              1.686              1.456
 Vibration    17          0.703              1.643              1.331
 Vibration    18          0.718              1.600              1.223
 Vibration    19          0.733              1.559              1.131
 Vibration    20          0.745              1.526              1.064
 Vibration    21          0.751              1.509              1.032
 Vibration    22          0.761              1.482              0.984
 Vibration    23          0.781              1.432              0.899
 Vibration    24          0.813              1.351              0.783
 Vibration    25          0.853              1.257              0.666
 Vibration    26          0.875              1.206              0.610
 Vibration    27          0.918              1.112              0.519
 Vibration    28          0.954              1.040              0.457
 Vibration    29          0.960              1.029              0.447
 Vibration    30          0.981              0.988              0.416

 Normal termination of Gaussian 09 at Mon Jan 30 10:14:46 2017.
