 Gaussian 09, Revision E.01,
 Gaussian 09:  ES64L-G09RevE.01 30-Nov-2015

 ----------------------------------------------------------------------
 # opt=(calcfc,ts,noeigentest,maxcycle=1000,cartesian) b3lyp 6-31g(d) f
 req
 ----------------------------------------------------------------------

 ------------------------------------------
 ./5/glo_2w_beta_boat5_b3lyp_631Gd_iopt.out
 ------------------------------------------
 Symbolic Z-matrix:
 Charge =  0 Multiplicity = 1

 SCF Done:  E(RB3LYP) =  -839.992002265     A.U. after   14 cycles
 Optimization completed.
    -- Stationary point found.
 Normal termination of Gaussian 09 at Mon Jan 30 06:49:51 2017.

 --------------------------------------------------------------------
 #N Geom=AllCheck Guess=TCheck SCRF=Check GenChk RB3LYP/6-31G(d) Freq
 --------------------------------------------------------------------

 Structure from the checkpoint file:  "/scratch/10499768.yak.local/Gau-15100.chk"
 ------------------------------------------
 ./5/glo_2w_beta_boat5_b3lyp_631Gd_iopt.out
 ------------------------------------------
 Charge =  0 Multiplicity = 1

                         Standard orientation:
 ---------------------------------------------------------------------
 Center     Atomic      Atomic             Coordinates (Angstroms)
 Number     Number       Type             X           Y           Z
 ---------------------------------------------------------------------
      1          8           0        0.449780   -0.715631   -0.744420
      2          6           0       -1.209550   -0.357790    1.042390
      3          6           0       -0.197570    1.612700   -0.224330
      4          6           0       -1.344260    1.139730    0.693900
      5          6           0        0.938390    0.594919   -0.317270
      6          6           0       -0.785181   -1.182460   -0.171220
      7          1           0       -1.280610    1.724190    1.626560
      8          1           0       -0.598701   -2.207210    0.182710
      9          1           0       -2.184510   -0.733260    1.385870
     10          1           0       -0.609580    1.748120   -1.234570
     11          6           0       -1.849931   -1.213780   -1.283180
     12          1           0       -1.525111   -1.913380   -2.064590
     13          1           0       -1.943370   -0.224720   -1.731390
     14          1           0        1.400420    0.472229    0.667860
     15          8           0        1.854280    1.042349   -1.245020
     16          1           0        2.736430    0.661769   -0.994910
     17          8           0       -3.148921   -1.539740   -0.787340
     18          1           0       -3.158411   -2.479800   -0.548530
     19          8           0        0.322460    2.830529    0.283350
     20          1           0        1.097490    3.029699   -0.270370
     21          8           0       -2.580760    1.407450    0.039730
     22          1           0       -3.214760    0.701200    0.245110
     23          8           0       -0.222490   -0.594910    2.053260
     24          1           0       -0.406580   -0.002630    2.799800
     25          8           0        4.065370   -0.214371   -0.254370
     26          1           0        3.593289   -0.941051    0.225750
     27          1           0        4.582410   -0.669591   -0.935940
     28          8           0        2.335799   -2.103161    0.731280
     29          1           0        1.892539   -1.826961    1.551070
     30          1           0        1.703529   -1.798631    0.042070
 ---------------------------------------------------------------------

 SCF Done:  E(RB3LYP) =  -839.992002265     A.U. after    1 cycles

 The electronic state is 1-A.
 Alpha  occ. eigenvalues --  -19.17882 -19.17038 -19.16824 -19.15171 -19.15069
 Alpha  occ. eigenvalues --  -19.14642 -19.14104 -19.14036 -10.27993 -10.26034
 Alpha  occ. eigenvalues --  -10.25648 -10.24857 -10.24332 -10.23319  -1.07102
 Alpha  occ. eigenvalues --   -1.04756  -1.03888  -1.02802  -1.01587  -1.01159
 Alpha  occ. eigenvalues --   -1.00393  -0.99169  -0.78993  -0.76543  -0.69671
 Alpha  occ. eigenvalues --   -0.66051  -0.63167  -0.56535  -0.55743  -0.54164
 Alpha  occ. eigenvalues --   -0.53472  -0.52925  -0.52395  -0.51776  -0.51078
 Alpha  occ. eigenvalues --   -0.48186  -0.46997  -0.44182  -0.43299  -0.42451
 Alpha  occ. eigenvalues --   -0.41830  -0.40972  -0.39977  -0.39234  -0.38809
 Alpha  occ. eigenvalues --   -0.37211  -0.35759  -0.35180  -0.33736  -0.32380
 Alpha  occ. eigenvalues --   -0.31232  -0.30803  -0.29871  -0.29495  -0.29065
 Alpha  occ. eigenvalues --   -0.27762  -0.27170  -0.25202
 Alpha virt. eigenvalues --    0.03612   0.04715   0.06520   0.08181   0.09597
 Alpha virt. eigenvalues --    0.10623   0.11341   0.11602   0.12218   0.14073
 Alpha virt. eigenvalues --    0.14862   0.16621   0.17572   0.18315   0.19732

 Mulliken charges:
               1
     1  O   -0.549478
     2  C    0.061553
     3  C    0.117036
     4  C    0.117938
     5  C    0.313344
     6  C    0.109313
     7  H    0.136339
     8  H    0.131303
     9  H    0.132658
    10  H    0.154197
    11  C   -0.070994
    12  H    0.148028
    13  H    0.187974
    14  H    0.124953
    15  O   -0.658374
    16  H    0.440801
    17  O   -0.621114
    18  H    0.397585
    19  O   -0.645409
    20  H    0.404554
    21  O   -0.639470
    22  H    0.411028
    23  O   -0.642168
    24  H    0.405222
    25  O   -0.820648
    26  H    0.432903
    27  H    0.397446
    28  O   -0.829298
    29  H    0.411171
    30  H    0.441606
 Sum of Mulliken charges =  -0.00000

 Dipole moment (field-independent basis, Debye):
    X=             -1.1577    Y=             -3.4475    Z=              1.6442  Tot=              3.9911
 Quadrupole moment (field-independent basis, Debye-Ang):
   XX=            -83.8745   YY=            -87.0554   ZZ=            -77.6844
   XY=              7.3141   XZ=             -7.5907   YZ=              2.3003

  Exact polarizability: 105.623   4.960  93.088  -2.794   0.080  83.761
 Approx polarizability: 136.460   4.566 128.213  -3.381  -1.945 122.913

 ******    1 imaginary frequencies (negative Signs) ******

                      1                      2                      3
                      A                      A                      A
 Frequencies --   -107.6119                41.6954                55.0595
 Red. masses --      2.1042                 5.2579                 5.2962
 Frc consts  --      0.0144                 0.0054                 0.0095
 IR Inten    --     40.5137                 0.2290                 3.3908

                      4                      5                      6
                      A                      A                      A
 Frequencies --     64.7841                75.6218               124.6491
 Red. masses --      5.1787                 7.5894                 6.3922
 Frc consts  --      0.0128                 0.0256                 0.0585
 IR Inten    --      0.5185                 0.9682                 7.7561

                      7                      8                      9
                      A                      A                      A
 Frequencies --    166.1803               183.2442               195.3556
 Red. masses --      3.4586                 4.8233                 4.8019
 Frc consts  --      0.0563                 0.0954                 0.1080
 IR Inten    --     32.1627                 2.0034                13.3790

                     10                     11                     12
                      A                      A                      A
 Frequencies --    228.6353               243.4981               257.7200
 Red. masses --      4.3307                 2.3757                 5.9946
 Frc consts  --      0.1334                 0.0830                 0.2346
 IR Inten    --     16.8996                 6.6608                11.1402

                     13                     14                     15
                      A                      A                      A
 Frequencies --    260.0540               269.0831               297.2529
 Red. masses --      4.5654                 4.2359                 1.3439
 Frc consts  --      0.1819                 0.1807                 0.0700
 IR Inten    --     16.9901                10.7977               141.1721

                     16                     17                     18
                      A                      A                      A
 Frequencies --    310.0165               316.2893               339.9198
 Red. masses --      2.7625                 1.1792                 1.4569
 Frc consts  --      0.1564                 0.0695                 0.0992
 IR Inten    --     10.6206               108.1405                96.3966

                     19                     20                     21
                      A                      A                      A
 Frequencies --    351.0812               377.9717               397.1563
 Red. masses --      1.9392                 1.9760                 1.8991
 Frc consts  --      0.1408                 0.1663                 0.1765
 IR Inten    --     96.4478                13.6103                27.9183

                     22                     23                     24
                      A                      A                      A
 Frequencies --    408.4626               421.1183               454.0792
 Red. masses --      2.8501                 1.2419                 3.4749
 Frc consts  --      0.2802                 0.1298                 0.4221
 IR Inten    --     13.8153               137.8764                 4.5633

                     25                     26                     27
                      A                      A                      A
 Frequencies --    473.2108               490.9621               530.2419
 Red. masses --      1.3069                 4.2749                 3.5321
 Frc consts  --      0.1724                 0.6071                 0.5851
 IR Inten    --    107.6415                12.8225                33.5511

                     28                     29                     30
                      A                      A                      A
 Frequencies --    534.0471               567.7781               575.5019
 Red. masses --      6.8732                 1.6247                 2.0880
 Frc consts  --      1.1550                 0.3086                 0.4075
 IR Inten    --      1.2120                25.0279                 7.4181

                     31                     32                     33
                      A                      A                      A
 Frequencies --    605.7464               738.2313               798.8135
 Red. masses --      3.9533                 1.0923                 2.3540
 Frc consts  --      0.8547                 0.3507                 0.8850
 IR Inten    --     17.3317               131.5619                11.0682

                     34                     35                     36
                      A                      A                      A
 Frequencies --    826.4374               834.7824               932.7422
 Red. masses --      1.1296                 4.1729                 4.5280
 Frc consts  --      0.4546                 1.7133                 2.3210
 IR Inten    --     86.3333                17.1817               107.7554

                     37                     38                     39
                      A                      A                      A
 Frequencies --    968.1916               995.4615              1011.2731
 Red. masses --      2.7932                 1.1138                 1.8510
 Frc consts  --      1.5427                 0.6503                 1.1153
 IR Inten    --     91.7877               153.3258                97.2104

                     40                     41                     42
                      A                      A                      A
 Frequencies --   1042.3305              1059.0821              1073.1222
 Red. masses --      3.4299                 5.5127                 5.2306
 Frc consts  --      2.1956                 3.6431                 3.5489
 IR Inten    --    119.7606               200.9598                22.7100

                     43                     44                     45
                      A                      A                      A
 Frequencies --   1081.7033              1097.7401              1116.9387
 Red. masses --      3.2205                 2.9714                 2.5171
 Frc consts  --      2.2202                 2.1096                 1.8502
 IR Inten    --      2.6635                16.5140                60.7814

                     46                     47                     48
                      A                      A                      A
 Frequencies --   1122.8619              1124.9940              1197.4274
 Red. masses --      3.6172                 3.0695                 1.8021
 Frc consts  --      2.6870                 2.2889                 1.5224
 IR Inten    --     97.1611                14.9529               103.0964

                     49                     50                     51
                      A                      A                      A
 Frequencies --   1203.9349              1250.8565              1262.3268
 Red. masses --      1.8956                 1.2145                 1.2067
 Frc consts  --      1.6188                 1.1196                 1.1329
 IR Inten    --     13.4765                16.0306                71.9376

                     52                     53                     54
                      A                      A                      A
 Frequencies --   1270.9876              1322.1744              1342.6400
 Red. masses --      1.2156                 1.2079                 1.2145
 Frc consts  --      1.1570                 1.2441                 1.2900
 IR Inten    --     45.1172                47.7113                 4.4045

                     55                     56                     57
                      A                      A                      A
 Frequencies --   1354.8392              1366.7084              1391.5410
 Red. masses --      1.2281                 1.2155                 1.1879
 Frc consts  --      1.3282                 1.3377                 1.3553
 IR Inten    --     11.3188                 7.9151                15.8685

                     58                     59                     60
                      A                      A                      A
 Frequencies --   1405.7086              1408.8697              1416.1795
 Red. masses --      1.3683                 1.2407                 1.3667
 Frc consts  --      1.5931                 1.4509                 1.6150
 IR Inten    --      9.0063                23.7761                 9.3563

                     61                     62                     63
                      A                      A                      A
 Frequencies --   1437.5875              1442.0391              1449.8012
 Red. masses --      1.2669                 1.3669                 1.5219
 Frc consts  --      1.5426                 1.6747                 1.8848
 IR Inten    --      2.8529                42.8004                26.2132

                     64                     65                     66
                      A                      A                      A
 Frequencies --   1472.9732              1530.0536              1568.2131
 Red. masses --      1.6415                 1.0838                 1.2853
 Frc consts  --      2.0984                 1.4949                 1.8624
 IR Inten    --     24.6576                 3.2127                39.8361

                     67                     68                     69
                      A                      A                      A
 Frequencies --   1745.1561              1756.8557              2991.6083
 Red. masses --      1.0715                 1.0784                 1.0842
 Frc consts  --      1.9227                 1.9610                 5.7171
 IR Inten    --     44.4602               246.4669                45.8849

                     70                     71                     72
                      A                      A                      A
 Frequencies --   3015.9002              3027.3456              3033.1496
 Red. masses --      1.0844                 1.0855                 1.0839
 Frc consts  --      5.8111                 5.8613                 5.8750
 IR Inten    --     21.9645                55.9745                25.9232

                     73                     74                     75
                      A                      A                      A
 Frequencies --   3053.0240              3081.5130              3168.3058
 Red. masses --      1.0716                 1.0849                 1.0957
 Frc consts  --      5.8848                 6.0700                 6.4804
 IR Inten    --     45.6187                36.8920                 9.1711

                     76                     77                     78
                      A                      A                      A
 Frequencies --   3317.8758              3421.1900              3533.7119
 Red. masses --      1.0666                 1.0623                 1.0588
 Frc consts  --      6.9179                 7.3255                 7.7895
 IR Inten    --    444.6229               933.6850               399.4843

                     79                     80                     81
                      A                      A                      A
 Frequencies --   3710.1053              3731.4864              3739.8266
 Red. masses --      1.0650                 1.0667                 1.0662
 Frc consts  --      8.6375                 8.7509                 8.7858
 IR Inten    --     36.5410                33.2923                22.5267

                     82                     83                     84
                      A                      A                      A
 Frequencies --   3741.9487              3762.4562              3796.3301
 Red. masses --      1.0664                 1.0679                 1.0676
 Frc consts  --      8.7978                 8.9072                 9.0651
 IR Inten    --     18.4033                45.1898                47.3245

 - Thermochemistry -
 -------------------
 Temperature   298.150 Kelvin.  Pressure   1.00000 Atm.
 Atom     1 has atomic number  8 and mass  15.99491

 Molecular mass:   216.08452 amu.
 Principal axes and moments of inertia in atomic units:
                           1         2         3
     Eigenvalues --  2201.678993752.683884602.61929
           X            0.99999   0.00311  -0.00101
           Y           -0.00310   0.99998   0.00586
           Z            0.00103  -0.00586   0.99998
 This molecule is an asymmetric top.
 Rotational symmetry number  1.
 Warning -- assumption of classical behavior for rotation
           may cause significant error
 Rotational temperatures (Kelvin)      0.03934     0.02308     0.01882
 Rotational constants (GHZ):           0.81971     0.48092     0.39211
    1 imaginary frequencies ignored.
 Zero-point vibrational energy     652944.4 (Joules/Mol)
                                  156.05745 (Kcal/Mol)
 Warning -- explicit consideration of  30 degrees of freedom as
           vibrations may cause significant error
 Vibrational temperatures:     59.99    79.22    93.21   108.80   179.34
          (Kelvin)            239.10   263.65   281.07   328.95   350.34
                              370.80   374.16   387.15   427.68   446.04
                              455.07   489.07   505.13   543.82   571.42
                              587.69   605.89   653.32   680.84   706.38
                              762.90   768.37   816.90   828.02   871.53
                             1062.15  1149.31  1189.06  1201.06  1342.01
                             1393.01  1432.25  1454.99  1499.68  1523.78
                             1543.98  1556.33  1579.40  1607.02  1615.55
                             1618.61  1722.83  1732.19  1799.70  1816.20
                             1828.67  1902.31  1931.76  1949.31  1966.39
                             2002.11  2022.50  2027.05  2037.56  2068.37
                             2074.77  2085.94  2119.28  2201.40  2256.31
                             2510.89  2527.72  4304.25  4339.20  4355.67
                             4364.02  4392.62  4433.60  4558.48  4773.68
                             4922.32  5084.22  5338.01  5368.77  5380.77
                             5383.82  5413.33  5462.07

 Zero-point correction=                           0.248693 (Hartree/Particle)
 Thermal correction to Energy=                    0.265379
 Thermal correction to Enthalpy=                  0.266324
 Thermal correction to Gibbs Free Energy=         0.205479
 Sum of electronic and zero-point Energies=           -839.743309
 Sum of electronic and thermal Energies=              -839.726623
 Sum of electronic and thermal Enthalpies=            -839.725679
 Sum of electronic and thermal Free Energies=         -839.786524

                     E (Thermal)             CV                S
                      KCal/Mol        Cal/Mol-Kelvin    Cal/Mol-Kelvin
 Total                  166.528             62.610            128.059
 Electronic               0.000              0.000              0.000
 Translational            0.889              2.981             42.015
 Rotational               0.889              2.981             32.009
 Vibrational            164.751             56.649             54.035
 Vibration     1          0.594              1.981              5.177
 Vibration     2          0.596              1.976              4.627
 Vibration     3          0.597              1.971              4.306
 Vibration     4          0.599              1.965              4.001
 Vibration     5          0.610              1.928              3.027
 Vibration     6          0.624              1.884              2.478
 Vibration     7          0.631              1.863              2.295
 Vibration     8          0.636              1.846              2.176
 Vibration     9          0.651              1.797              1.890
 Vibration    10          0.659              1.774              1.777
 Vibration    11          0.667              1.750              1.677
 Vibration    12          0.668              1.746              1.661
 Vibration    13          0.673              1.730              1.602
 Vibration    14          0.691              1.679              1.432
 Vibration    15          0.699              1.655              1.362
 Vibration    16          0.703              1.643              1.329
 Vibration    17          0.720              1.596              1.213
 Vibration    18          0.728              1.573              1.161
 Vibration    19          0.748              1.517              1.047
 Vibration    20          0.764              1.476              0.973
 Vibration    21          0.773              1.452              0.932
 Vibration    22          0.784              1.424              0.888
 Vibration    23          0.813              1.352              0.784
 Vibration    24          0.830              1.309              0.729
 Vibration    25          0.847              1.270              0.681
 Vibration    26          0.885              1.183              0.587
 Vibration    27          0.889              1.175              0.578
 Vibration    28          0.924              1.101              0.509
 Vibration    29          0.932              1.084              0.494
 Vibration    30          0.964              1.020              0.440

 Optimization completed.
    -- Stationary point found.
 Normal termination of Gaussian 09 at Mon Jan 30 07:08:40 2017.
