 Gaussian 09, Revision D.01,
 Gaussian 09:  EM64L-G09RevD.01 24-Apr-2013

 -----------------
 # opt freq hf/gen
 -----------------

 ------
 ch3ch3
 ------
 Symbolic Z-matrix:
 Charge =  0 Multiplicity = 1

 SCF Done:  E(RHF) =  -79.0725175256     A.U. after    9 cycles
 SCF Done:  E(RHF) =  -79.0745541993     A.U. after    9 cycles
 SCF Done:  E(RHF) =  -79.0747008568     A.U. after    8 cycles
 Optimization completed.
    -- Stationary point found.
 Normal termination of Gaussian 09 at Thu Nov 17 21:43:51 2016.

 ---------------------------------------------------------------
 #N Geom=AllCheck Guess=TCheck SCRF=Check GenChk RHF/ChkBas Freq
 ---------------------------------------------------------------

 Structure from the checkpoint file:  "/home/chongee/BasisSet/Gau-1111.chk"
 ------
 ch3ch3
 ------
 Charge =  0 Multiplicity = 1

                         Standard orientation:
 ---------------------------------------------------------------------
 Center     Atomic      Atomic             Coordinates (Angstroms)
 Number     Number       Type             X           Y           Z
 ---------------------------------------------------------------------
      1          6           0        0.772435    0.000001    0.000001
      2          6           0       -0.772435   -0.000001   -0.000001
      3          1           0        1.166002   -0.722246    0.721101
      4          1           0        1.166001    0.985615    0.264934
      5          1           0        1.166003   -0.263367   -0.986034
      6          1           0       -1.166007    0.263295    0.986054
      7          1           0       -1.165997   -0.985595   -0.265007
      8          1           0       -1.166002    0.722302   -0.721045
 ---------------------------------------------------------------------

 SCF Done:  E(RHF) =  -79.0747008568     A.U. after    1 cycles

 The electronic state is 1-A.
 Alpha  occ. eigenvalues --  -11.20713 -11.20697  -1.02081  -0.84643  -0.59525
 Alpha  occ. eigenvalues --   -0.59525  -0.50345  -0.48382  -0.48382
 Alpha virt. eigenvalues --    0.26749   0.28284   0.28284   0.28920   0.31315
 Alpha virt. eigenvalues --    0.31315   0.37028   0.52279   0.55169   0.70711
 Alpha virt. eigenvalues --    0.70711   0.77243   0.88099   0.88099   1.08663

 Mulliken charges:
               1
     1  C   -0.565136
     2  C   -0.565136
     3  H    0.188379
     4  H    0.188379
     5  H    0.188379
     6  H    0.188378
     7  H    0.188379
     8  H    0.188379
 Sum of Mulliken charges =   0.00000

 Dipole moment (field-independent basis, Debye):
    X=              0.0000    Y=              0.0000    Z=              0.0000  Tot=              0.0000
 Quadrupole moment (field-independent basis, Debye-Ang):
   XX=            -15.8210   YY=            -15.0947   ZZ=            -15.0948
   XY=              0.0000   XZ=              0.0000   YZ=              0.0000

  Exact polarizability:  22.423   0.000  21.295   0.000   0.000  21.295
 Approx polarizability:  16.553   0.000  17.558   0.000   0.000  17.558

                      1                      2                      3
                      A                      A                      A
 Frequencies --    295.9925               905.5539               905.5563
 Red. masses --      1.0078                 1.0555                 1.0555
 Frc consts  --      0.0520                 0.5099                 0.5099
 IR Inten    --      0.0000                 4.3451                 4.3452
 Raman Activ --      0.0000                 0.0000                 0.0000

                      4                      5                      6
                      A                      A                      A
 Frequencies --   1021.6934              1332.7503              1332.7508
 Red. masses --      3.6399                 1.4427                 1.4427
 Frc consts  --      2.2386                 1.5098                 1.5098
 IR Inten    --      0.0000                 0.0000                 0.0000
 Raman Activ --     17.6706                 3.4804                 3.4806

                      7                      8                      9
                      A                      A                      A
 Frequencies --   1548.8464              1555.6376              1639.9724
 Red. masses --      1.2001                 1.2061                 1.0271
 Frc consts  --      1.6962                 1.7196                 1.6275
 IR Inten    --      6.3451                 0.0000                 0.0000
 Raman Activ --      0.0000                 2.7804                39.7190

                     10                     11                     12
                      A                      A                      A
 Frequencies --   1639.9754              1643.8191              1643.8227
 Red. masses --      1.0271                 1.0648                 1.0648
 Frc consts  --      1.6275                 1.6952                 1.6952
 IR Inten    --      0.0000                16.8570                16.8574
 Raman Activ --     39.7194                 0.0000                 0.0000

                     13                     14                     15
                      A                      A                      A
 Frequencies --   3111.8633              3124.1005              3193.0119
 Red. masses --      1.0328                 1.0374                 1.1018
 Frc consts  --      5.8924                 5.9656                 6.6181
 IR Inten    --     77.3907                 0.0000                 0.0000
 Raman Activ --      0.0000               258.0811               192.3611

                     16                     17                     18
                      A                      A                      A
 Frequencies --   3193.0328              3220.1317              3220.1523
 Red. masses --      1.1018                 1.1023                 1.1023
 Frc consts  --      6.6182                 6.7344                 6.7345
 IR Inten    --      0.0000                88.1936                88.1913
 Raman Activ --    192.3582                 0.0000                 0.0000

 - Thermochemistry -
 -------------------
 Temperature   298.150 Kelvin.  Pressure   1.00000 Atm.
 Atom     1 has atomic number  6 and mass  12.00000

 Molecular mass:    30.04695 amu.
 Principal axes and moments of inertia in atomic units:
                           1         2         3
     Eigenvalues --    22.49292  91.74158  91.74160
           X            1.00000   0.00000   0.00000
           Y            0.00000   1.00000   0.00000
           Z            0.00000   0.00000   1.00000
 This molecule is an asymmetric top.
 Rotational symmetry number  1.
 Rotational temperatures (Kelvin)      3.85071     0.94411     0.94411
 Rotational constants (GHZ):          80.23596    19.67201    19.67200
 Zero-point vibrational energy     206527.3 (Joules/Mol)
                                   49.36120 (Kcal/Mol)
 Warning -- explicit consideration of   1 degrees of freedom as
           vibrations may cause significant error
 Vibrational temperatures:    425.87  1302.89  1302.89  1469.99  1917.53
          (Kelvin)           1917.53  2228.44  2238.21  2359.55  2359.56
                             2365.09  2365.09  4477.27  4494.88  4594.03
                             4594.06  4633.05  4633.08

 Zero-point correction=                           0.078662 (Hartree/Particle)
 Thermal correction to Energy=                    0.082098
 Thermal correction to Enthalpy=                  0.083042
 Thermal correction to Gibbs Free Energy=         0.055531
 Sum of electronic and zero-point Energies=            -78.996039
 Sum of electronic and thermal Energies=               -78.992603
 Sum of electronic and thermal Enthalpies=             -78.991659
 Sum of electronic and thermal Free Energies=          -79.019169

                     E (Thermal)             CV                S
                      KCal/Mol        Cal/Mol-Kelvin    Cal/Mol-Kelvin
 Total                   51.517              9.554             57.901
 Electronic               0.000              0.000              0.000
 Translational            0.889              2.981             36.134
 Rotational               0.889              2.981             19.876
 Vibrational             49.740              3.592              1.891
 Vibration     1          0.690              1.681              1.439

 Optimization completed.
    -- Stationary point found.
 Normal termination of Gaussian 09 at Thu Nov 17 21:43:52 2016.
