 Gaussian 09, Revision E.01,
 Gaussian 09:  ES64L-G09RevE.01 30-Nov-2015

 -------------------
 # opt freq hf/6-31g
 -------------------

 -----------------
 density at points
 -----------------
 Symbolic Z-matrix:
 Charge =  0 Multiplicity = 1

 SCF Done:  E(RHF) =  -114.986808223     A.U. after   11 cycles
 SCF Done:  E(RHF) =  -114.987919825     A.U. after   10 cycles
 SCF Done:  E(RHF) =  -114.988156727     A.U. after    9 cycles
 SCF Done:  E(RHF) =  -114.988164861     A.U. after    9 cycles
 SCF Done:  E(RHF) =  -114.988165547     A.U. after    8 cycles
 Optimization completed.
    -- Stationary point found.
 Normal termination of Gaussian 09 at Wed Nov 23 18:51:52 2016.

 --------------------------------------------------------------
 #N Geom=AllCheck Guess=TCheck SCRF=Check GenChk RHF/6-31G Freq
 --------------------------------------------------------------

 Structure from the checkpoint file:  "//home/aalrawas/scratch/Gau-32566.chk"
 -----------------
 density at points
 -----------------
 Charge =  0 Multiplicity = 1

                         Standard orientation:
 ---------------------------------------------------------------------
 Center     Atomic      Atomic             Coordinates (Angstroms)
 Number     Number       Type             X           Y           Z
 ---------------------------------------------------------------------
      1          6           0       -0.676203   -0.021916    0.000010
      2          8           0        0.747399    0.118888    0.000004
      3          1           0       -1.026184   -0.545950   -0.881484
      4          1           0       -1.026696   -0.539037    0.885361
      5          1           0       -1.077712    0.977191   -0.004046
      6          1           0        1.208622   -0.711816    0.000075
 ---------------------------------------------------------------------

 SCF Done:  E(RHF) =  -114.988165547     A.U. after    1 cycles

 The electronic state is 1-A.
 Alpha  occ. eigenvalues --  -20.55045 -11.27381  -1.35457  -0.93886  -0.68416
 Alpha  occ. eigenvalues --   -0.62186  -0.58988  -0.48870  -0.44560
 Alpha virt. eigenvalues --    0.22241   0.27235   0.31588   0.32252   0.37420
 Alpha virt. eigenvalues --    0.76620   0.78288   0.80161   1.12459   1.17345
 Alpha virt. eigenvalues --    1.19883   1.20548   1.26832   1.28540   1.34048

 Mulliken charges:
               1
     1  C   -0.118516
     2  O   -0.748841
     3  H    0.142512
     4  H    0.142626
     5  H    0.182216
     6  H    0.400003
 Sum of Mulliken charges =  -0.00000

 Dipole moment (field-independent basis, Debye):
    X=             -1.2196    Y=             -1.9334    Z=             -0.0004  Tot=              2.2859
 Quadrupole moment (field-independent basis, Debye-Ang):
   XX=            -12.4544   YY=            -12.3125   ZZ=            -13.6744
   XY=             -2.7014   XZ=              0.0009   YZ=             -0.0008

  Exact polarizability:  15.883  -1.161  14.442  -0.001   0.001  12.316
 Approx polarizability:  11.699  -0.670  11.442  -0.001   0.000   9.399

                      1                      2                      3
                      A                      A                      A
 Frequencies --    331.0278              1107.0861              1149.3634
 Red. masses --      1.0796                 5.4265                 1.1323
 Frc consts  --      0.0697                 3.9186                 0.8813
 IR Inten    --    209.1071               125.4751                25.0903
 Raman Activ --      5.0515                10.2207                 5.9322

                      4                      5                      6
                      A                      A                      A
 Frequencies --   1266.6509              1462.9009              1633.1825
 Red. masses --      1.2490                 1.2898                 1.1393
 Frc consts  --      1.1807                 1.6263                 1.7904
 IR Inten    --      1.4377                28.9286                 4.3443
 Raman Activ --      9.3719                 6.2289                 6.6766

                      7                      8                      9
                      A                      A                      A
 Frequencies --   1664.4249              1671.3500              3190.6275
 Red. masses --      1.0537                 1.0529                 1.0355
 Frc consts  --      1.7199                 1.7328                 6.2108
 IR Inten    --      4.3527                 4.4257                46.8578
 Raman Activ --     23.6156                21.5255               131.9767

                     10                     11                     12
                      A                      A                      A
 Frequencies --   3249.3262              3328.0358              4033.3663
 Red. masses --      1.1042                 1.0983                 1.0670
 Frc consts  --      6.8688                 7.1670                10.2275
 IR Inten    --     82.5813                33.4560                25.4822
 Raman Activ --     66.6753                76.5643                89.4893

 - Thermochemistry -
 -------------------
 Temperature   298.150 Kelvin.  Pressure   1.00000 Atm.
 Atom     1 has atomic number  6 and mass  12.00000

 Molecular mass:    32.02621 amu.
 Principal axes and moments of inertia in atomic units:
                           1         2         3
     Eigenvalues --    13.63299  73.85400  76.25164
           X            0.99902  -0.04421   0.00000
           Y            0.04421   0.99902  -0.00000
           Z           -0.00000   0.00000   1.00000
 This molecule is an asymmetric top.
 Rotational symmetry number  1.
 Rotational temperatures (Kelvin)      6.35325     1.17277     1.13589
 Rotational constants (GHZ):         132.38040    24.43661    23.66823
 Zero-point vibrational energy     144074.3 (Joules/Mol)
                                   34.43458 (Kcal/Mol)
 Warning -- explicit consideration of   1 degrees of freedom as
           vibrations may cause significant error
 Vibrational temperatures:    476.27  1592.85  1653.68  1822.43  2104.79
          (Kelvin)           2349.78  2394.73  2404.70  4590.60  4675.05
                             4788.30  5803.11

 Zero-point correction=                           0.054875 (Hartree/Particle)
 Thermal correction to Energy=                    0.058161
 Thermal correction to Enthalpy=                  0.059106
 Thermal correction to Gibbs Free Energy=         0.032150
 Sum of electronic and zero-point Energies=           -114.933291
 Sum of electronic and thermal Energies=              -114.930004
 Sum of electronic and thermal Enthalpies=            -114.929060
 Sum of electronic and thermal Free Energies=         -114.956016

                     E (Thermal)             CV                S
                      KCal/Mol        Cal/Mol-Kelvin    Cal/Mol-Kelvin
 Total                   36.497              8.469             56.734
 Electronic               0.000              0.000              0.000
 Translational            0.889              2.981             36.324
 Rotational               0.889              2.981             18.980
 Vibrational             34.719              2.508              1.430
 Vibration     1          0.713              1.614              1.255

 Normal termination of Gaussian 09 at Wed Nov 23 18:51:54 2016.
