 Gaussian 09, Revision D.01,
 Gaussian 09:  EM64L-G09RevD.01 24-Apr-2013

 ---------------------------
 # opt=cartesian freq hf/gen
 ---------------------------

 ----
 chch
 ----
 Symbolic Z-matrix:
 Charge =  0 Multiplicity = 1

 SCF Done:  E(RHF) =  -76.6911529052     A.U. after    8 cycles
 SCF Done:  E(RHF) =  -76.6914193936     A.U. after    7 cycles
 SCF Done:  E(RHF) =  -76.6914284067     A.U. after    7 cycles
 Optimization completed.
    -- Stationary point found.
 Normal termination of Gaussian 09 at Thu Nov 17 22:01:28 2016.

 ---------------------------------------------------------------
 #N Geom=AllCheck Guess=TCheck SCRF=Check GenChk RHF/ChkBas Freq
 ---------------------------------------------------------------

 Structure from the checkpoint file:  "/home/chongee/BasisSet/Gau-1351.chk"
 ----
 chch
 ----
 Charge =  0 Multiplicity = 1

                         Standard orientation:
 ---------------------------------------------------------------------
 Center     Atomic      Atomic             Coordinates (Angstroms)
 Number     Number       Type             X           Y           Z
 ---------------------------------------------------------------------
      1          6           0        0.000000    0.000000    0.597056
      2          6           0        0.000000    0.000000   -0.597056
      3          1           0        0.000000    0.000000    1.655600
      4          1           0        0.000000    0.000000   -1.655600
 ---------------------------------------------------------------------

 SCF Done:  E(RHF) =  -76.6914284067     A.U. after    1 cycles

 The electronic state is 1-SGG.
 Alpha  occ. eigenvalues --  -11.24024 -11.23693  -1.04049  -0.75902  -0.67970
 Alpha  occ. eigenvalues --   -0.41135  -0.41135
 Alpha virt. eigenvalues --    0.20943   0.20943   0.21605   0.24595   0.33378
 Alpha virt. eigenvalues --    0.33471   0.78083   0.78083   0.85177   0.92233
 Alpha virt. eigenvalues --    0.94988   0.94988   1.21546   1.23894   1.67795

 Mulliken charges:
               1
     1  C   -0.234332
     2  C   -0.234332
     3  H    0.234332
     4  H    0.234332
 Sum of Mulliken charges =   0.00000

 Dipole moment (field-independent basis, Debye):
    X=              0.0000    Y=              0.0000    Z=              0.0000  Tot=              0.0000
 Quadrupole moment (field-independent basis, Debye-Ang):
   XX=            -13.6484   YY=            -13.6484   ZZ=             -7.0400
   XY=              0.0000   XZ=              0.0000   YZ=              0.0000

  Exact polarizability:   9.223   0.000   9.223   0.000   0.000  28.242
 Approx polarizability:   6.779   0.000   6.779   0.000   0.000  28.990

                      1                      2                      3
                     PIG                    PIG                    PIU
 Frequencies --    830.7436               830.7436               879.9175
 Red. masses --      1.5733                 1.5733                 1.0848
 Frc consts  --      0.6397                 0.6397                 0.4949
 IR Inten    --      0.0000                 0.0000               141.2574
 Raman Activ --      8.0832                 8.0832                 0.0000

                      4                      5                      6
                     PIU                    SGG                    SGU
 Frequencies --    879.9175              2163.4057              3566.9139
 Red. masses --      1.0848                 3.6306                 1.0848
 Frc consts  --      0.4949                10.0115                 8.1319
 IR Inten    --    141.2574                 0.0000               109.1871
 Raman Activ --      0.0000                68.9059                 0.0000

                      7
                     SGG
 Frequencies --   3694.8900
 Red. masses --      1.2498
 Frc consts  --     10.0529
 IR Inten    --      0.0000
 Raman Activ --     57.6502

 - Thermochemistry -
 -------------------
 Temperature   298.150 Kelvin.  Pressure   1.00000 Atm.
 Atom     1 has atomic number  6 and mass  12.00000

 Molecular mass:    26.01565 amu.
 Principal axes and moments of inertia in atomic units:
                           1         2         3
     Eigenvalues --     0.00000  50.28186  50.28186
           X            0.00000   0.65996   0.75130
           Y            0.00000   0.75130  -0.65996
           Z            1.00000   0.00000   0.00000
 This molecule is a prolate symmetric top.
 Rotational symmetry number  2.
 Rotational temperature (Kelvin)      1.72257
 Rotational constant (GHZ):          35.892493
 Zero-point vibrational energy      76839.3 (Joules/Mol)
                                   18.36504 (Kcal/Mol)
 Vibrational temperatures:   1195.25  1195.25  1266.00  1266.00  3112.65
          (Kelvin)           5131.99  5316.12

 Zero-point correction=                           0.029267 (Hartree/Particle)
 Thermal correction to Energy=                    0.031884
 Thermal correction to Enthalpy=                  0.032828
 Thermal correction to Gibbs Free Energy=         0.010389
 Sum of electronic and zero-point Energies=            -76.662162
 Sum of electronic and thermal Energies=               -76.659545
 Sum of electronic and thermal Enthalpies=             -76.658600
 Sum of electronic and thermal Free Energies=          -76.681039

                     E (Thermal)             CV                S
                      KCal/Mol        Cal/Mol-Kelvin    Cal/Mol-Kelvin
 Total                   20.007              7.233             47.226
 Electronic               0.000              0.000              0.000
 Translational            0.889              2.981             35.704
 Rotational               0.592              1.987             10.851
 Vibrational             18.526              2.265              0.671

 Optimization completed.
    -- Stationary point found.
 Normal termination of Gaussian 09 at Thu Nov 17 22:01:29 2016.
