 Gaussian 09, Revision E.01,
 Gaussian 09:  ES64L-G09RevE.01 30-Nov-2015

 -----------------
 # hf/gen opt freq
 -----------------

 -------------------
 Title Card Required
 -------------------
 Symbolic Z-matrix:
 Charge =  0 Multiplicity = 1

 SCF Done:  E(RHF) =  -187.254961612     A.U. after   10 cycles
 SCF Done:  E(RHF) =  -187.278821255     A.U. after   10 cycles
 SCF Done:  E(RHF) =  -187.278853712     A.U. after    8 cycles
 Optimization completed.
    -- Stationary point found.
 Normal termination of Gaussian 09 at Wed Nov 23 17:43:31 2016.

 ---------------------------------------------------------------
 #N Geom=AllCheck Guess=TCheck SCRF=Check GenChk RHF/ChkBas Freq
 ---------------------------------------------------------------

 Structure from the checkpoint file:  "//home/aalrawas/scratch/Gau-7881.chk"
 -------------------
 Title Card Required
 -------------------
 Charge =  0 Multiplicity = 1

                         Standard orientation:
 ---------------------------------------------------------------------
 Center     Atomic      Atomic             Coordinates (Angstroms)
 Number     Number       Type             X           Y           Z
 ---------------------------------------------------------------------
      1          6           0        0.000000    0.000000    0.000000
      2          8           0        0.000000    0.000000    1.172270
      3          8           0        0.000000    0.000000   -1.172270
 ---------------------------------------------------------------------

 SCF Done:  E(RHF) =  -187.278853712     A.U. after    1 cycles

 The electronic state is 1-SGG.
 Alpha  occ. eigenvalues --  -20.67400 -20.67365 -11.50811  -1.56095  -1.51921
 Alpha  occ. eigenvalues --   -0.79500  -0.73475  -0.72963  -0.72963  -0.53937
 Alpha  occ. eigenvalues --   -0.53937
 Alpha virt. eigenvalues --    0.14308   0.17762   0.17762   0.37554   0.53519
 Alpha virt. eigenvalues --    0.67876   0.67876   0.68220   0.84714   1.21059
 Alpha virt. eigenvalues --    1.37016   1.37016   1.57211   1.57211   1.75484

 Mulliken charges:
               1
     1  C    0.780560
     2  O   -0.390280
     3  O   -0.390280
 Sum of Mulliken charges =   0.00000

 Dipole moment (field-independent basis, Debye):
    X=             -0.0000    Y=             -0.0000    Z=              0.0000  Tot=              0.0000
 Quadrupole moment (field-independent basis, Debye-Ang):
   XX=            -14.8939   YY=            -14.8939   ZZ=            -22.1414
   XY=              0.0000   XZ=              0.0000   YZ=              0.0000

  Exact polarizability:   5.793   0.000   5.793  -0.000   0.000  22.016
 Approx polarizability:   4.372  -0.000   4.372  -0.000  -0.000  26.047

                      1                      2                      3
                     PIU                    PIU                    SGG
 Frequencies --    671.1028               671.1028              1346.3838
 Red. masses --     12.8774                12.8774                15.9949
 Frc consts  --      3.4171                 3.4171                17.0832
 IR Inten    --     81.5114                81.5114                 0.0000
 Raman Activ --      0.0000                 0.0000                12.7557

                      4
                     SGU
 Frequencies --   2307.8230
 Red. masses --     12.8774
 Frc consts  --     40.4094
 IR Inten    --    751.3641
 Raman Activ --      0.0000

 - Thermochemistry -
 -------------------
 Temperature   298.150 Kelvin.  Pressure   1.00000 Atm.
 Atom     1 has atomic number  6 and mass  12.00000

 Molecular mass:    43.98983 amu.
 Principal axes and moments of inertia in atomic units:
                           1         2         3
     Eigenvalues --     0.00000 156.98743 156.98743
           X           -0.00000   1.00000  -0.00000
           Y            0.00000   0.00000   1.00000
           Z            1.00000   0.00000  -0.00000
 This molecule is a prolate symmetric top.
 Rotational symmetry number  2.
 Rotational temperature (Kelvin)      0.55172
 Rotational constant (GHZ):          11.496088
 Zero-point vibrational energy      29885.2 (Joules/Mol)
                                    7.14273 (Kcal/Mol)
 Vibrational temperatures:    965.57   965.57  1937.14  3320.44
          (Kelvin)

 Zero-point correction=                           0.011383 (Hartree/Particle)
 Thermal correction to Energy=                    0.014002
 Thermal correction to Enthalpy=                  0.014946
 Thermal correction to Gibbs Free Energy=        -0.009329
 Sum of electronic and zero-point Energies=           -187.267471
 Sum of electronic and thermal Energies=              -187.264852
 Sum of electronic and thermal Enthalpies=            -187.263907
 Sum of electronic and thermal Free Energies=         -187.288182

                     E (Thermal)             CV                S
                      KCal/Mol        Cal/Mol-Kelvin    Cal/Mol-Kelvin
 Total                    8.787              6.870             51.091
 Electronic               0.000              0.000              0.000
 Translational            0.889              2.981             37.270
 Rotational               0.592              1.987             13.114
 Vibrational              7.305              1.902              0.707

 Optimization completed.
    -- Stationary point found.
 Normal termination of Gaussian 09 at Wed Nov 23 17:43:33 2016.
