 Gaussian 09, Revision E.01,
 Gaussian 09:  ES64L-G09RevE.01 30-Nov-2015

 -----------------
 # opt freq hf/gen
 -----------------

 --------------------
 H2 density at nuclei
 --------------------
 Symbolic Z-matrix:
 Charge =  0 Multiplicity = 1

 SCF Done:  E(RHF) =  -1.11901624688     A.U. after    4 cycles
 SCF Done:  E(RHF) =  -1.11901709249     A.U. after    3 cycles
 Optimization completed.
    -- Stationary point found.
 Normal termination of Gaussian 09 at Wed Nov 23 19:01:18 2016.

 ---------------------------------------------------------------
 #N Geom=AllCheck Guess=TCheck SCRF=Check GenChk RHF/ChkBas Freq
 ---------------------------------------------------------------

 Structure from the checkpoint file:  "//home/aalrawas/scratch/Gau-12917.chk"
 --------------------
 H2 density at nuclei
 --------------------
 Charge =  0 Multiplicity = 1

                         Standard orientation:
 ---------------------------------------------------------------------
 Center     Atomic      Atomic             Coordinates (Angstroms)
 Number     Number       Type             X           Y           Z
 ---------------------------------------------------------------------
      1          1           0        0.000000    0.000000    0.370559
      2          1           0        0.000000    0.000000   -0.370559
 ---------------------------------------------------------------------

 SCF Done:  E(RHF) =  -1.11901709249     A.U. after    1 cycles

 The electronic state is 1-SGG.
 Alpha  occ. eigenvalues --   -0.59182
 Alpha virt. eigenvalues --    0.21641   0.59815   1.21469

 Mulliken charges:
               1
     1  H   -0.000000
     2  H   -0.000000
 Sum of Mulliken charges =  -0.00000

 Dipole moment (field-independent basis, Debye):
    X=             -0.0000    Y=              0.0000    Z=             -0.0000  Tot=              0.0000
 Quadrupole moment (field-independent basis, Debye-Ang):
   XX=             -2.0267   YY=             -2.0267   ZZ=             -1.5970
   XY=              0.0000   XZ=             -0.0000   YZ=              0.0000

  Exact polarizability:   0.000   0.000   0.000  -0.000   0.000   6.554
 Approx polarizability:   0.000  -0.000  -0.000  -0.000  -0.000   5.065

                      1
                     SGG
 Frequencies --   4593.1058
 Red. masses --      1.0078
 Frc consts  --     12.5270
 IR Inten    --      0.0000
 Raman Activ --    106.8927

 - Thermochemistry -
 -------------------
 Temperature   298.150 Kelvin.  Pressure   1.00000 Atm.
 Atom     1 has atomic number  1 and mass   1.00783

 Molecular mass:     2.01565 amu.
 Principal axes and moments of inertia in atomic units:
                           1         2         3
     Eigenvalues --     0.00000   0.98839   0.98839
           X           -0.00000   1.00000  -0.00000
           Y            0.00000   0.00000   1.00000
           Z            1.00000   0.00000  -0.00000
 This molecule is a prolate symmetric top.
 Rotational symmetry number  2.
 Rotational temperature (Kelvin)     87.63123
 Rotational constant (GHZ):        1825.940751
 Zero-point vibrational energy      27472.9 (Joules/Mol)
                                    6.56617 (Kcal/Mol)
 Vibrational temperatures:   6608.45
          (Kelvin)

 Zero-point correction=                           0.010464 (Hartree/Particle)
 Thermal correction to Energy=                    0.012824
 Thermal correction to Enthalpy=                  0.013769
 Thermal correction to Gibbs Free Energy=        -0.001019
 Sum of electronic and zero-point Energies=             -1.108553
 Sum of electronic and thermal Energies=                -1.106193
 Sum of electronic and thermal Enthalpies=              -1.105249
 Sum of electronic and thermal Free Energies=           -1.120036

                     E (Thermal)             CV                S
                      KCal/Mol        Cal/Mol-Kelvin    Cal/Mol-Kelvin
 Total                    8.047              4.968             31.123
 Electronic               0.000              0.000              0.000
 Translational            0.889              2.981             28.080
 Rotational               0.592              1.987              3.043
 Vibrational              6.566              0.000              0.000

 Optimization completed.
    -- Stationary point found.
 Normal termination of Gaussian 09 at Wed Nov 23 19:01:19 2016.
