 Gaussian 09, Revision E.01,
 Gaussian 09:  ES64L-G09RevE.01 30-Nov-2015

 -------------------
 # opt freq hf/6-31g
 -------------------

 --------------------
 H2 density at nuclei
 --------------------
 Symbolic Z-matrix:
 Charge =  0 Multiplicity = 1

 SCF Done:  E(RHF) =  -1.12675531341     A.U. after    4 cycles
 SCF Done:  E(RHF) =  -1.12682780182     A.U. after    4 cycles
 Optimization completed.
    -- Stationary point found.
 Normal termination of Gaussian 09 at Wed Nov 23 18:59:19 2016.

 --------------------------------------------------------------
 #N Geom=AllCheck Guess=TCheck SCRF=Check GenChk RHF/6-31G Freq
 --------------------------------------------------------------

 Structure from the checkpoint file:  "//home/aalrawas/scratch/Gau-4667.chk"
 --------------------
 H2 density at nuclei
 --------------------
 Charge =  0 Multiplicity = 1

                         Standard orientation:
 ---------------------------------------------------------------------
 Center     Atomic      Atomic             Coordinates (Angstroms)
 Number     Number       Type             X           Y           Z
 ---------------------------------------------------------------------
      1          1           0        0.000000    0.000000    0.364890
      2          1           0        0.000000    0.000000   -0.364890
 ---------------------------------------------------------------------

 SCF Done:  E(RHF) =  -1.12682780182     A.U. after    1 cycles

 The electronic state is 1-SGG.
 Alpha  occ. eigenvalues --   -0.59894
 Alpha virt. eigenvalues --    0.24120   0.76981   1.41811

 Mulliken charges:
               1
     1  H    0.000000
     2  H    0.000000
 Sum of Mulliken charges =   0.00000

 Dipole moment (field-independent basis, Debye):
    X=              0.0000    Y=              0.0000    Z=             -0.0000  Tot=              0.0000
 Quadrupole moment (field-independent basis, Debye-Ang):
   XX=             -2.0272   YY=             -2.0272   ZZ=             -1.6133
   XY=              0.0000   XZ=             -0.0000   YZ=              0.0000

  Exact polarizability:   0.000   0.000   0.000  -0.000   0.000   6.350
 Approx polarizability:   0.000  -0.000  -0.000  -0.000  -0.000   4.946

                      1
                     SGG
 Frequencies --   4648.8800
 Red. masses --      1.0078
 Frc consts  --     12.8331
 IR Inten    --      0.0000
 Raman Activ --     89.2992

 - Thermochemistry -
 -------------------
 Temperature   298.150 Kelvin.  Pressure   1.00000 Atm.
 Atom     1 has atomic number  1 and mass   1.00783

 Molecular mass:     2.01565 amu.
 Principal axes and moments of inertia in atomic units:
                           1         2         3
     Eigenvalues --     0.00000   0.95838   0.95838
           X           -0.00000   1.00000  -0.00000
           Y            0.00000   0.00000   1.00000
           Z            1.00000   0.00000  -0.00000
 This molecule is a prolate symmetric top.
 Rotational symmetry number  2.
 Rotational temperature (Kelvin)     90.37528
 Rotational constant (GHZ):        1883.117490
 Zero-point vibrational energy      27806.5 (Joules/Mol)
                                    6.64591 (Kcal/Mol)
 Vibrational temperatures:   6688.69
          (Kelvin)

 Zero-point correction=                           0.010591 (Hartree/Particle)
 Thermal correction to Energy=                    0.012951
 Thermal correction to Enthalpy=                  0.013896
 Thermal correction to Gibbs Free Energy=        -0.000863
 Sum of electronic and zero-point Energies=             -1.116237
 Sum of electronic and thermal Energies=                -1.113876
 Sum of electronic and thermal Enthalpies=              -1.112932
 Sum of electronic and thermal Free Energies=           -1.127691

                     E (Thermal)             CV                S
                      KCal/Mol        Cal/Mol-Kelvin    Cal/Mol-Kelvin
 Total                    8.127              4.968             31.062
 Electronic               0.000              0.000              0.000
 Translational            0.889              2.981             28.080
 Rotational               0.592              1.987              2.982
 Vibrational              6.646              0.000              0.000

 Optimization completed.
    -- Stationary point found.
 Normal termination of Gaussian 09 at Wed Nov 23 18:59:20 2016.
