 Gaussian 09, Revision D.01,
 Gaussian 09:  EM64L-G09RevD.01 24-Apr-2013

 ------------
 # opt hf/gen
 ------------

 --
 H2
 --
 Symbolic Z-matrix:
 Charge =  0 Multiplicity = 1

 SCF Done:  E(RHF) =  -1.08086691989     A.U. after    3 cycles
 SCF Done:  E(RHF) =  -1.09727560649     A.U. after    4 cycles
 SCF Done:  E(RHF) =  -1.09727714067     A.U. after    3 cycles
 Optimization completed.
    -- Stationary point found.

                         Standard orientation:
 ---------------------------------------------------------------------
 Center     Atomic      Atomic             Coordinates (Angstroms)
 Number     Number       Type             X           Y           Z
 ---------------------------------------------------------------------
      1          1           0        0.000000    0.000000    0.423830
      2          1           0        0.000000    0.000000   -0.423830
 ---------------------------------------------------------------------

 The electronic state is 1-SGG.
 Alpha  occ. eigenvalues --   -0.58579
 Alpha virt. eigenvalues --    0.32970  24.65398  25.22540

 Mulliken charges:
               1
     1  H    0.000000
     2  H    0.000000
 Sum of Mulliken charges =   0.00000

 Dipole moment (field-independent basis, Debye):
    X=              0.0000    Y=              0.0000    Z=              0.0000  Tot=              0.0000
 Quadrupole moment (field-independent basis, Debye-Ang):
   XX=             -2.8731   YY=             -2.8731   ZZ=             -2.3042
   XY=              0.0000   XZ=              0.0000   YZ=              0.0000

 1\1\GINC-CHONGEE-INSPIRON-3521\FOpt\RHF\Gen\H2\CHONGEE\17-Nov-2016\0\\
 # opt hf/gen\\H2\\0,1\H,0.,0.,-0.0738301563\H,0.,0.,0.7738301563\\Vers
 ion=EM64L-G09RevD.01\State=1-SGG\HF=-1.0972771\RMSD=3.361e-14\RMSF=1.9
 45e-05\Dipole=0.,0.,0.\Quadrupole=-0.1409894,-0.1409894,0.2819788,0.,0
 .,0.\PG=D*H [C*(H1.H1)]\\@

 WE ARE REACHING THE STAGE WHERE THE PROBLEMS WE MUST SOLVE ARE

 Normal termination of Gaussian 09 at Thu Nov 17 20:55:10 2016.
