 Gaussian 09, Revision E.01,
 Gaussian 09:  ES64L-G09RevE.01 30-Nov-2015

 -----------------
 # opt freq hf/gen
 -----------------

 ---
 h2o
 ---
 Symbolic Z-matrix:
 Charge =  0 Multiplicity = 1

 SCF Done:  E(RHF) =  -150.502125687     A.U. after    9 cycles
 SCF Done:  E(RHF) =  -150.524499182     A.U. after   10 cycles
 SCF Done:  E(RHF) =  -150.525910642     A.U. after    9 cycles
 SCF Done:  E(RHF) =  -150.525951465     A.U. after    8 cycles
 SCF Done:  E(RHF) =  -150.526028344     A.U. after    8 cycles
 Optimization completed.
    -- Stationary point found.
 Normal termination of Gaussian 09 at Wed Nov 23 18:24:34 2016.

 ---------------------------------------------------------------
 #N Geom=AllCheck Guess=TCheck SCRF=Check GenChk RHF/ChkBas Freq
 ---------------------------------------------------------------

 Structure from the checkpoint file:  "//home/aalrawas/scratch/Gau-32524.chk"
 ---
 h2o
 ---
 Charge =  0 Multiplicity = 1

                         Standard orientation:
 ---------------------------------------------------------------------
 Center     Atomic      Atomic             Coordinates (Angstroms)
 Number     Number       Type             X           Y           Z
 ---------------------------------------------------------------------
      1          8           0       -0.000000    0.740483   -0.000001
      2          1           0        0.962513    0.909517    0.000009
      3          8           0       -0.000000   -0.740483   -0.000001
      4          1           0       -0.962513   -0.909517    0.000009
 ---------------------------------------------------------------------

 SCF Done:  E(RHF) =  -150.526028344     A.U. after    1 cycles

 The electronic state is 1-A.
 Alpha  occ. eigenvalues --  -20.62357 -20.62341  -1.47393  -1.22499  -0.70624
 Alpha  occ. eigenvalues --   -0.65589  -0.61994  -0.52517  -0.46045
 Alpha virt. eigenvalues --    0.20731   0.20940   0.28018   0.57453   0.63284
 Alpha virt. eigenvalues --    0.94787   1.00536   1.31303   1.46679   1.56381
 Alpha virt. eigenvalues --    1.62288   1.70251   1.70748

 Mulliken charges:
               1
     1  O   -0.373949
     2  H    0.373949
     3  O   -0.373949
     4  H    0.373949
 Sum of Mulliken charges =  -0.00000

 Dipole moment (field-independent basis, Debye):
    X=              0.0000    Y=              0.0000    Z=              0.0000  Tot=              0.0000
 Quadrupole moment (field-independent basis, Debye-Ang):
   XX=             -8.0138   YY=            -11.5583   ZZ=            -12.5130
   XY=              4.2373   XZ=              0.0000   YZ=              0.0000

  Exact polarizability:   9.983   3.068  16.156  -0.000  -0.000   3.297
 Approx polarizability:   7.652   1.307  11.460  -0.000   0.000   2.360

                      1                      2                      3
                      A                      A                      B
 Frequencies --    158.9132              1091.3596              1247.3674
 Red. masses --      1.0671                15.0519                 1.0671
 Frc consts  --      0.0159                10.5627                 0.9782
 IR Inten    --    459.1599                 0.0000               140.4814
 Raman Activ --      0.0000                40.5344                 0.0000

                      4                      5                      6
                      A                      A                      B
 Frequencies --   1605.3724              3811.7186              3819.4065
 Red. masses --      1.1236                 1.0700                 1.0671
 Frc consts  --      1.7061                 9.1593                 9.1716
 IR Inten    --      0.0000                 0.0000               143.4117
 Raman Activ --      8.3965               170.5803                 0.0000

 - Thermochemistry -
 -------------------
 Temperature   298.150 Kelvin.  Pressure   1.00000 Atm.
 Atom     1 has atomic number  8 and mass  15.99491

 Molecular mass:    34.00548 amu.
 Principal axes and moments of inertia in atomic units:
                           1         2         3
     Eigenvalues --     6.03376  69.22736  75.26112
           X            0.10022   0.99497   0.00000
           Y            0.99497  -0.10022   0.00000
           Z            0.00000   0.00000   1.00000
 This molecule is an asymmetric top.
 Rotational symmetry number  2.
 Rotational temperatures (Kelvin)     14.35486     1.25115     1.15084
 Rotational constants (GHZ):         299.10718    26.06977    23.97973
 Zero-point vibrational energy      70185.7 (Joules/Mol)
                                   16.77479 (Kcal/Mol)
 Warning -- explicit consideration of   1 degrees of freedom as
           vibrations may cause significant error
 Vibrational temperatures:    228.64  1570.22  1794.68  2309.77  5484.21
          (Kelvin)           5495.27

 Zero-point correction=                           0.026732 (Hartree/Particle)
 Thermal correction to Energy=                    0.030236
 Thermal correction to Enthalpy=                  0.031180
 Thermal correction to Gibbs Free Energy=         0.004626
 Sum of electronic and zero-point Energies=           -150.499296
 Sum of electronic and thermal Energies=              -150.495793
 Sum of electronic and thermal Enthalpies=            -150.494848
 Sum of electronic and thermal Free Energies=         -150.521402

                     E (Thermal)             CV                S
                      KCal/Mol        Cal/Mol-Kelvin    Cal/Mol-Kelvin
 Total                   18.973              8.369             55.887
 Electronic               0.000              0.000              0.000
 Translational            0.889              2.981             36.503
 Rotational               0.889              2.981             16.715
 Vibrational             17.196              2.408              2.669
 Vibration     1          0.621              1.893              2.563

 Optimization completed.
    -- Stationary point found.
 Normal termination of Gaussian 09 at Wed Nov 23 18:24:36 2016.
