 Gaussian 09, Revision E.01,
 Gaussian 09:  ES64L-G09RevE.01 30-Nov-2015

 -------------------------
 # b3lyp/6-31g(d) opt freq
 -------------------------

 ----------------------------------
 glo_1w_beta_ircf_boat4_B3LYP_631Gd
 ----------------------------------
 Symbolic Z-matrix:
 Charge =  0 Multiplicity = 1

 SCF Done:  E(RB3LYP) =  -839.968505061     A.U. after   14 cycles
 SCF Done:  E(RB3LYP) =  -839.835509227     A.U. after   14 cycles
 SCF Done:  E(RB3LYP) =  -839.974425631     A.U. after   11 cycles
 SCF Done:  E(RB3LYP) =  -839.980118285     A.U. after   11 cycles
 SCF Done:  E(RB3LYP) =  -839.984231479     A.U. after   11 cycles
 SCF Done:  E(RB3LYP) =  -839.989575260     A.U. after   11 cycles
 SCF Done:  E(RB3LYP) =  -839.988858536     A.U. after   12 cycles
 SCF Done:  E(RB3LYP) =  -839.991334145     A.U. after    9 cycles
 SCF Done:  E(RB3LYP) =  -839.991883148     A.U. after   11 cycles
 SCF Done:  E(RB3LYP) =  -839.993519271     A.U. after   11 cycles
 SCF Done:  E(RB3LYP) =  -839.994303383     A.U. after    8 cycles
 SCF Done:  E(RB3LYP) =  -839.994308762     A.U. after    7 cycles
 SCF Done:  E(RB3LYP) =  -839.994313341     A.U. after    8 cycles
 SCF Done:  E(RB3LYP) =  -839.994315080     A.U. after    7 cycles
 SCF Done:  E(RB3LYP) =  -839.994315921     A.U. after    7 cycles
 SCF Done:  E(RB3LYP) =  -839.994316031     A.U. after    7 cycles
 SCF Done:  E(RB3LYP) =  -839.994315824     A.U. after    7 cycles
 SCF Done:  E(RB3LYP) =  -839.994315613     A.U. after    7 cycles
 SCF Done:  E(RB3LYP) =  -839.994315478     A.U. after    6 cycles
 Optimization completed.
    -- Stationary point found.
 Normal termination of Gaussian 09 at Sun Jan 15 21:35:04 2017.

 --------------------------------------------------------------------
 #N Geom=AllCheck Guess=TCheck SCRF=Check GenChk RB3LYP/6-31G(d) Freq
 --------------------------------------------------------------------

 Structure from the checkpoint file:  "/scratch/10464836.yak.local/Gau-17708.chk"
 ----------------------------------
 glo_1w_beta_ircf_boat4_B3LYP_631Gd
 ----------------------------------
 Charge =  0 Multiplicity = 1

                         Standard orientation:
 ---------------------------------------------------------------------
 Center     Atomic      Atomic             Coordinates (Angstroms)
 Number     Number       Type             X           Y           Z
 ---------------------------------------------------------------------
      1          8           0       -1.614872    0.054106    0.561672
      2          6           0        0.719377    0.442975   -0.171158
      3          6           0       -0.039743   -1.830520    0.679320
      4          6           0        1.161934   -0.979528    0.222012
      5          6           0       -1.372726   -1.306902    0.138048
      6          6           0       -0.475167    0.920484    0.672701
      7          1           0        1.810677   -0.876580    1.106467
      8          1           0       -0.158195    0.948033    1.726114
      9          1           0        0.432845    0.424250   -1.230323
     10          1           0       -2.213431   -1.852859    0.594004
     11          6           0       -0.986195    2.304744    0.249128
     12          1           0       -1.256398    2.280497   -0.811555
     13          1           0       -1.887486    2.554529    0.825551
     14          1           0        0.113562   -2.848902    0.302036
     15          8           0       -1.380909   -1.426102   -1.245181
     16          8           0        0.001784    3.335046    0.370847
     17          1           0        0.162585    3.484143    1.316827
     18          8           0       -0.048195   -1.786736    2.106696
     19          1           0       -0.809065   -2.301354    2.419654
     20          8           0        1.815111   -1.654055   -0.826628
     21          1           0        2.659854   -1.181716   -1.008930
     22          8           0        1.832865    1.327734    0.039169
     23          1           0        1.501498    2.239211   -0.088784
     24          8           0       -3.766618    0.014917   -1.309769
     25          1           0       -3.247809    0.369596   -0.560438
     26          1           0       -2.267967   -1.123093   -1.541797
     27          1           0       -3.727564    0.706609   -1.987880
     28          8           0        4.019833    0.046588   -1.046920
     29          1           0        4.592992   -0.133683   -0.286403
     30          1           0        3.377034    0.711807   -0.713953
 ---------------------------------------------------------------------

 SCF Done:  E(RB3LYP) =  -839.994315478     A.U. after    1 cycles

 The electronic state is 1-A.
 Alpha  occ. eigenvalues --  -19.18915 -19.17138 -19.16242 -19.16085 -19.15291
 Alpha  occ. eigenvalues --  -19.14204 -19.13915 -19.11273 -10.28831 -10.25914
 Alpha  occ. eigenvalues --  -10.25212 -10.23848 -10.23600 -10.22867  -1.07414
 Alpha  occ. eigenvalues --   -1.05780  -1.03125  -1.02437  -1.01867  -1.00359
 Alpha  occ. eigenvalues --   -0.99846  -0.98758  -0.78506  -0.76460  -0.69876
 Alpha  occ. eigenvalues --   -0.64810  -0.63417  -0.56178  -0.55578  -0.54832
 Alpha  occ. eigenvalues --   -0.54361  -0.52427  -0.51573  -0.51323  -0.49621
 Alpha  occ. eigenvalues --   -0.48342  -0.46422  -0.44853  -0.43822  -0.42188
 Alpha  occ. eigenvalues --   -0.41081  -0.40157  -0.40064  -0.39090  -0.38613
 Alpha  occ. eigenvalues --   -0.37258  -0.35855  -0.35132  -0.33934  -0.32430
 Alpha  occ. eigenvalues --   -0.30989  -0.30861  -0.29409  -0.29027  -0.28070
 Alpha  occ. eigenvalues --   -0.27246  -0.26873  -0.24346
 Alpha virt. eigenvalues --    0.03365   0.04862   0.06406   0.07805   0.09207
 Alpha virt. eigenvalues --    0.10976   0.12309   0.12668   0.13457   0.14548
 Alpha virt. eigenvalues --    0.15442   0.16605   0.17497   0.17964   0.18769

 Mulliken charges:
               1
     1  O   -0.547466
     2  C    0.092548
     3  C    0.093693
     4  C    0.135191
     5  C    0.302192
     6  C    0.118482
     7  H    0.135773
     8  H    0.141199
     9  H    0.155365
    10  H    0.120337
    11  C   -0.076373
    12  H    0.153262
    13  H    0.152357
    14  H    0.164856
    15  O   -0.627320
    16  O   -0.619729
    17  H    0.407780
    18  O   -0.635945
    19  H    0.393022
    20  O   -0.670175
    21  H    0.423972
    22  O   -0.691784
    23  H    0.423708
    24  O   -0.796530
    25  H    0.418571
    26  H    0.418526
    27  H    0.398258
    28  O   -0.805295
    29  H    0.392378
    30  H    0.429148
 Sum of Mulliken charges =  -0.00000

 Dipole moment (field-independent basis, Debye):
    X=             -2.0115    Y=              3.6151    Z=              3.1030  Tot=              5.1714
 Quadrupole moment (field-independent basis, Debye-Ang):
   XX=            -84.4578   YY=            -79.1433   ZZ=            -83.2155
   XY=              0.1578   XZ=              7.0830   YZ=             -3.2702

  Exact polarizability: 103.658   0.885  97.191   1.233   0.422  84.377
 Approx polarizability: 132.535   3.543 126.621   1.402   4.150 127.360

                      1                      2                      3
                      A                      A                      A
 Frequencies --     29.9885                50.7761                54.6385
 Red. masses --      5.8257                 5.7331                 5.6250
 Frc consts  --      0.0031                 0.0087                 0.0099
 IR Inten    --      1.4163                 1.9331                 4.8949

                      4                      5                      6
                      A                      A                      A
 Frequencies --     85.0105               117.8306               124.9887
 Red. masses --      5.7603                 4.7003                 6.0082
 Frc consts  --      0.0245                 0.0384                 0.0553
 IR Inten    --      0.7598                 2.0346                 7.0621

                      7                      8                      9
                      A                      A                      A
 Frequencies --    156.4455               169.9893               176.1624
 Red. masses --      3.4322                 5.5604                 4.1890
 Frc consts  --      0.0495                 0.0947                 0.0766
 IR Inten    --      4.8723                 0.3907                26.0596

                     10                     11                     12
                      A                      A                      A
 Frequencies --    191.6439               238.1401               256.1768
 Red. masses --      6.4259                 3.7815                 2.8587
 Frc consts  --      0.1391                 0.1264                 0.1105
 IR Inten    --     12.4664                11.4976                26.8417

                     13                     14                     15
                      A                      A                      A
 Frequencies --    267.6246               280.5828               302.7024
 Red. masses --      3.5708                 1.3142                 1.1203
 Frc consts  --      0.1507                 0.0610                 0.0605
 IR Inten    --      2.3648               170.1700                71.7989

                     16                     17                     18
                      A                      A                      A
 Frequencies --    311.4993               329.5193               344.3247
 Red. masses --      1.4117                 1.3518                 1.2165
 Frc consts  --      0.0807                 0.0865                 0.0850
 IR Inten    --     35.8265               157.6012               108.8293

                     19                     20                     21
                      A                      A                      A
 Frequencies --    351.6315               370.9111               378.0676
 Red. masses --      1.7893                 3.9885                 1.7164
 Frc consts  --      0.1303                 0.3233                 0.1445
 IR Inten    --     36.0978                 8.6422                93.6621

                     22                     23                     24
                      A                      A                      A
 Frequencies --    389.8913               425.8603               452.6259
 Red. masses --      4.4142                 5.7917                 3.8410
 Frc consts  --      0.3954                 0.6189                 0.4636
 IR Inten    --     55.5520                 2.4839                23.0416

                     25                     26                     27
                      A                      A                      A
 Frequencies --    477.7520               521.1288               547.5331
 Red. masses --      5.0085                 3.2230                 4.6923
 Frc consts  --      0.6735                 0.5157                 0.8288
 IR Inten    --      1.5028                 9.2919                14.1357

                     28                     29                     30
                      A                      A                      A
 Frequencies --    571.7274               590.7491               609.5846
 Red. masses --      2.7865                 2.5996                 1.8258
 Frc consts  --      0.5366                 0.5345                 0.3997
 IR Inten    --     51.1857                25.4165               141.2390

                     31                     32                     33
                      A                      A                      A
 Frequencies --    667.9042               754.6230               800.3968
 Red. masses --      1.1083                 1.0861                 1.1184
 Frc consts  --      0.2913                 0.3644                 0.4221
 IR Inten    --     19.8232               264.9964               166.1834

                     34                     35                     36
                      A                      A                      A
 Frequencies --    809.6814               852.1027               896.0680
 Red. masses --      6.1893                 1.1952                 2.0370
 Frc consts  --      2.3907                 0.5113                 0.9637
 IR Inten    --     73.9342               160.6346                32.7405

                     37                     38                     39
                      A                      A                      A
 Frequencies --    905.5335               968.2500              1024.3203
 Red. masses --      2.2132                 2.8603                 3.4716
 Frc consts  --      1.0693                 1.5799                 2.1461
 IR Inten    --      9.8913                29.8999               102.2922

                     40                     41                     42
                      A                      A                      A
 Frequencies --   1039.5685              1060.0290              1071.3041
 Red. masses --      2.7016                 4.7703                 7.0968
 Frc consts  --      1.7202                 3.1582                 4.7988
 IR Inten    --     11.8536                34.2475               184.9194

                     43                     44                     45
                      A                      A                      A
 Frequencies --   1084.5848              1098.3675              1114.3826
 Red. masses --      3.1583                 3.8866                 2.2996
 Frc consts  --      2.1889                 2.7626                 1.6825
 IR Inten    --      8.8155               108.8195                32.8121

                     46                     47                     48
                      A                      A                      A
 Frequencies --   1126.0456              1147.9886              1158.8851
 Red. masses --      2.8673                 2.9098                 4.8384
 Frc consts  --      2.1421                 2.2594                 3.8286
 IR Inten    --    110.2701                16.9148                53.3461

                     49                     50                     51
                      A                      A                      A
 Frequencies --   1208.0564              1250.2462              1268.9556
 Red. masses --      1.4671                 1.1589                 1.2371
 Frc consts  --      1.2614                 1.0673                 1.1737
 IR Inten    --     13.8387                50.0967                30.0532

                     52                     53                     54
                      A                      A                      A
 Frequencies --   1303.8393              1321.5118              1328.8117
 Red. masses --      1.2073                 1.0977                 1.1465
 Frc consts  --      1.2092                 1.1295                 1.1928
 IR Inten    --      7.4981                16.0879                 4.0055

                     55                     56                     57
                      A                      A                      A
 Frequencies --   1350.6382              1376.8733              1391.3785
 Red. masses --      1.2334                 1.3211                 1.2646
 Frc consts  --      1.3256                 1.4756                 1.4424
 IR Inten    --      7.3254                21.7986                47.3838

                     58                     59                     60
                      A                      A                      A
 Frequencies --   1396.1895              1409.0088              1421.0409
 Red. masses --      1.2660                 1.1995                 1.3133
 Frc consts  --      1.4540                 1.4031                 1.5625
 IR Inten    --     18.1513                26.4812                23.5639

                     61                     62                     63
                      A                      A                      A
 Frequencies --   1429.1794              1439.9852              1470.0472
 Red. masses --      1.3600                 1.3851                 1.4398
 Frc consts  --      1.6367                 1.6922                 1.8333
 IR Inten    --     63.4149                22.2119                42.7185

                     64                     65                     66
                      A                      A                      A
 Frequencies --   1515.4028              1533.0182              1535.5208
 Red. masses --      1.3681                 1.2880                 1.1935
 Frc consts  --      1.8510                 1.7835                 1.6580
 IR Inten    --      6.5862                39.5959                26.4718

                     67                     68                     69
                      A                      A                      A
 Frequencies --   1724.5519              1726.8723              3000.7955
 Red. masses --      1.0757                 1.0757                 1.0828
 Frc consts  --      1.8848                 1.8900                 5.7448
 IR Inten    --     57.8664                54.2979                23.7764

                     70                     71                     72
                      A                      A                      A
 Frequencies --   3007.1352              3021.0531              3041.0152
 Red. masses --      1.0855                 1.0837                 1.0642
 Frc consts  --      5.7833                 5.8276                 5.7982
 IR Inten    --     77.4375                29.0856                46.0802

                     73                     74                     75
                      A                      A                      A
 Frequencies --   3062.8861              3070.2686              3111.1925
 Red. masses --      1.0855                 1.0860                 1.1024
 Frc consts  --      5.9998                 6.0314                 6.2872
 IR Inten    --     28.1601                26.6110                33.8603

                     76                     77                     78
                      A                      A                      A
 Frequencies --   3466.7748              3516.8003              3547.4951
 Red. masses --      1.0658                 1.0654                 1.0597
 Frc consts  --      7.5472                 7.7635                 7.8571
 IR Inten    --    234.7021               270.8220               781.9868

                     79                     80                     81
                      A                      A                      A
 Frequencies --   3605.0990              3623.9374              3735.0928
 Red. masses --      1.0653                 1.0538                 1.0662
 Frc consts  --      8.1575                 8.1544                 8.7635
 IR Inten    --    152.9322               268.2576                27.5820

                     82                     83                     84
                      A                      A                      A
 Frequencies --   3735.6664              3796.5154              3803.7244
 Red. masses --      1.0660                 1.0700                 1.0742
 Frc consts  --      8.7647                 9.0864                 9.1574
 IR Inten    --     11.4854                66.5200                72.9611

 - Thermochemistry -
 -------------------
 Temperature   298.150 Kelvin.  Pressure   1.00000 Atm.
 Atom     1 has atomic number  8 and mass  15.99491

 Molecular mass:   216.08452 amu.
 Principal axes and moments of inertia in atomic units:
                           1         2         3
     Eigenvalues --  2603.650583589.578764798.07074
           X            0.99995  -0.00826   0.00619
           Y            0.00829   0.99995  -0.00559
           Z           -0.00614   0.00564   0.99997
 This molecule is an asymmetric top.
 Rotational symmetry number  1.
 Warning -- assumption of classical behavior for rotation
           may cause significant error
 Rotational temperatures (Kelvin)      0.03327     0.02413     0.01805
 Rotational constants (GHZ):           0.69316     0.50277     0.37614
 Zero-point vibrational energy     653771.9 (Joules/Mol)
                                  156.25523 (Kcal/Mol)
 Warning -- explicit consideration of  30 degrees of freedom as
           vibrations may cause significant error
 Vibrational temperatures:     43.15    73.06    78.61   122.31   169.53
          (Kelvin)            179.83   225.09   244.58   253.46   275.73
                              342.63   368.58   385.05   403.70   435.52
                              448.18   474.10   495.41   505.92   533.66
                              543.95   560.97   612.72   651.23   687.38
                              749.79   787.78   822.59   849.96   877.06
                              960.96  1085.73  1151.59  1164.95  1225.98
                             1289.24  1302.86  1393.09  1473.77  1495.71
                             1525.14  1541.37  1560.47  1580.30  1603.35
                             1620.13  1651.70  1667.38  1738.12  1798.82
                             1825.74  1875.93  1901.36  1911.86  1943.26
                             1981.01  2001.88  2008.80  2027.25  2044.56
                             2056.27  2071.81  2115.07  2180.32  2205.67
                             2209.27  2481.24  2484.58  4317.47  4326.59
                             4346.62  4375.34  4406.80  4417.43  4476.31
                             4987.91  5059.88  5104.05  5186.93  5214.03
                             5373.96  5374.78  5462.33  5472.70

 Zero-point correction=                           0.249009 (Hartree/Particle)
 Thermal correction to Energy=                    0.266443
 Thermal correction to Enthalpy=                  0.267387
 Thermal correction to Gibbs Free Energy=         0.204365
 Sum of electronic and zero-point Energies=           -839.745307
 Sum of electronic and thermal Energies=              -839.727872
 Sum of electronic and thermal Enthalpies=            -839.726928
 Sum of electronic and thermal Free Energies=         -839.789950

                     E (Thermal)             CV                S
                      KCal/Mol        Cal/Mol-Kelvin    Cal/Mol-Kelvin
 Total                  167.196             64.330            132.641
 Electronic               0.000              0.000              0.000
 Translational            0.889              2.981             42.015
 Rotational               0.889              2.981             32.172
 Vibrational            165.418             58.368             58.454
 Vibration     1          0.594              1.984              5.830
 Vibration     2          0.595              1.977              4.787
 Vibration     3          0.596              1.976              4.642
 Vibration     4          0.601              1.960              3.772
 Vibration     5          0.608              1.935              3.136
 Vibration     6          0.610              1.928              3.022
 Vibration     7          0.620              1.895              2.592
 Vibration     8          0.625              1.879              2.436
 Vibration     9          0.628              1.872              2.369
 Vibration    10          0.634              1.851              2.212
 Vibration    11          0.656              1.782              1.817
 Vibration    12          0.666              1.752              1.688
 Vibration    13          0.673              1.733              1.612
 Vibration    14          0.680              1.710              1.530
 Vibration    15          0.694              1.669              1.402
 Vibration    16          0.700              1.652              1.354
 Vibration    17          0.712              1.617              1.262
 Vibration    18          0.723              1.587              1.192
 Vibration    19          0.728              1.572              1.159
 Vibration    20          0.743              1.532              1.076
 Vibration    21          0.748              1.517              1.047
 Vibration    22          0.758              1.492              1.001
 Vibration    23          0.788              1.414              0.872
 Vibration    24          0.811              1.355              0.788
 Vibration    25          0.834              1.299              0.716
 Vibration    26          0.876              1.203              0.607
 Vibration    27          0.903              1.145              0.549
 Vibration    28          0.928              1.092              0.501
 Vibration    29          0.948              1.051              0.466
 Vibration    30          0.969              1.012              0.433

 Normal termination of Gaussian 09 at Sun Jan 15 22:07:14 2017.
