 Gaussian 09, Revision E.01,
 Gaussian 09:  ES64L-G09RevE.01 30-Nov-2015

 -------------------------
 # b3lyp/6-31g(d) opt freq
 -------------------------

 -----------------------------------
 glo_2w_alpha_ircf_boat4_B3LYP_631Gd
 -----------------------------------
 Symbolic Z-matrix:
 Charge =  0 Multiplicity = 1

 SCF Done:  E(RB3LYP) =  -839.981780207     A.U. after   14 cycles
 SCF Done:  E(RB3LYP) =  -839.989330866     A.U. after   12 cycles
 SCF Done:  E(RB3LYP) =  -839.994521958     A.U. after   12 cycles
 SCF Done:  E(RB3LYP) =  -839.997244257     A.U. after   12 cycles
 SCF Done:  E(RB3LYP) =  -839.999050658     A.U. after   12 cycles
 SCF Done:  E(RB3LYP) =  -839.999301752     A.U. after   11 cycles
 SCF Done:  E(RB3LYP) =  -839.999225762     A.U. after   11 cycles
 SCF Done:  E(RB3LYP) =  -839.999433890     A.U. after   11 cycles
 SCF Done:  E(RB3LYP) =  -839.999461918     A.U. after    9 cycles
 SCF Done:  E(RB3LYP) =  -839.999474785     A.U. after   10 cycles
 SCF Done:  E(RB3LYP) =  -840.000521329     A.U. after    9 cycles
 SCF Done:  E(RB3LYP) =  -840.000524040     A.U. after    9 cycles
 SCF Done:  E(RB3LYP) =  -840.000526516     A.U. after    7 cycles
 SCF Done:  E(RB3LYP) =  -840.000528418     A.U. after    8 cycles
 SCF Done:  E(RB3LYP) =  -840.000529382     A.U. after    7 cycles
 SCF Done:  E(RB3LYP) =  -840.000529994     A.U. after    7 cycles
 SCF Done:  E(RB3LYP) =  -840.000530227     A.U. after    7 cycles
 SCF Done:  E(RB3LYP) =  -840.000530353     A.U. after    7 cycles
 SCF Done:  E(RB3LYP) =  -840.000530400     A.U. after    6 cycles
 Optimization completed.
    -- Stationary point found.
 Normal termination of Gaussian 09 at Mon Jan 16 01:17:01 2017.

 --------------------------------------------------------------------
 #N Geom=AllCheck Guess=TCheck SCRF=Check GenChk RB3LYP/6-31G(d) Freq
 --------------------------------------------------------------------

 Structure from the checkpoint file:  "/scratch/10464837.yak.local/Gau-5011.chk"
 -----------------------------------
 glo_2w_alpha_ircf_boat4_B3LYP_631Gd
 -----------------------------------
 Charge =  0 Multiplicity = 1

                         Standard orientation:
 ---------------------------------------------------------------------
 Center     Atomic      Atomic             Coordinates (Angstroms)
 Number     Number       Type             X           Y           Z
 ---------------------------------------------------------------------
      1          8           0       -0.634985    0.424446   -0.125643
      2          6           0        1.739291    0.036567   -0.445927
      3          6           0        0.227519   -1.837229    0.394315
      4          6           0        1.654627   -1.425154    0.011439
      5          6           0       -0.855352   -1.006347   -0.297250
      6          6           0        0.669858    0.889852    0.249581
      7          1           0        2.265045   -1.520929    0.919795
      8          1           0        0.799236    0.811662    1.339836
      9          1           0        1.520013    0.062663   -1.528364
     10          6           0        0.701029    2.360934   -0.185766
     11          1           0        0.587086    2.418688   -1.272108
     12          1           0       -0.140964    2.901702    0.268135
     13          1           0        0.083049   -2.884857    0.093725
     14          8           0        1.948111    2.998199    0.111149
     15          1           0        2.036444    3.051231    1.076600
     16          8           0        0.099183   -1.682046    1.802411
     17          1           0       -0.857695   -1.729857    1.976837
     18          8           0        2.113031   -2.307765   -1.007144
     19          1           0        3.014064   -2.023468   -1.231143
     20          8           0        3.062031    0.479066   -0.185506
     21          1           0        3.067115    1.448373   -0.302812
     22          1           0       -0.866989   -1.194393   -1.378591
     23          8           0       -2.066129   -1.336719    0.292155
     24          8           0       -3.995873   -0.108984   -1.142855
     25          1           0       -2.813355   -1.016126   -0.280034
     26          1           0       -3.813667    0.728919   -0.646212
     27          1           0       -4.906554   -0.351393   -0.917906
     28          8           0       -2.963302    1.819411    0.484561
     29          1           0       -2.098023    1.379414    0.312338
     30          1           0       -3.193164    1.521766    1.378550
 ---------------------------------------------------------------------

 SCF Done:  E(RB3LYP) =  -840.000530400     A.U. after    1 cycles

 The electronic state is 1-A.
 Alpha  occ. eigenvalues --  -19.17906 -19.17066 -19.15698 -19.15451 -19.14915
 Alpha  occ. eigenvalues --  -19.14425 -19.14389 -19.14139 -10.28979 -10.24948
 Alpha  occ. eigenvalues --  -10.24920 -10.23744 -10.23600 -10.23317  -1.07406
 Alpha  occ. eigenvalues --   -1.04866  -1.02776  -1.02028  -1.01826  -1.00944
 Alpha  occ. eigenvalues --   -1.00655  -0.99863  -0.78000  -0.76856  -0.69470
 Alpha  occ. eigenvalues --   -0.64835  -0.63226  -0.56175  -0.55138  -0.54566
 Alpha  occ. eigenvalues --   -0.54300  -0.53053  -0.52624  -0.50423  -0.49891
 Alpha  occ. eigenvalues --   -0.49471  -0.45909  -0.44555  -0.43463  -0.42613
 Alpha  occ. eigenvalues --   -0.41020  -0.40703  -0.39940  -0.38998  -0.37979
 Alpha  occ. eigenvalues --   -0.36883  -0.35934  -0.35246  -0.33750  -0.32980
 Alpha  occ. eigenvalues --   -0.31730  -0.30639  -0.30005  -0.29416  -0.28360
 Alpha  occ. eigenvalues --   -0.27272  -0.26154  -0.25638
 Alpha virt. eigenvalues --    0.04096   0.05031   0.07989   0.08528   0.10153
 Alpha virt. eigenvalues --    0.10496   0.11341   0.13203   0.13991   0.14820
 Alpha virt. eigenvalues --    0.15286   0.15767   0.16966   0.17332   0.18137

 Mulliken charges:
               1
     1  O   -0.565446
     2  C    0.096828
     3  C    0.084723
     4  C    0.133937
     5  C    0.342819
     6  C    0.104748
     7  H    0.158146
     8  H    0.140451
     9  H    0.123332
    10  C   -0.074372
    11  H    0.168210
    12  H    0.155500
    13  H    0.155013
    14  O   -0.619099
    15  H    0.404965
    16  O   -0.651393
    17  H    0.411821
    18  O   -0.643741
    19  H    0.404412
    20  O   -0.672928
    21  H    0.416372
    22  H    0.144577
    23  O   -0.685098
    24  O   -0.812801
    25  H    0.437952
    26  H    0.427035
    27  H    0.397064
    28  O   -0.816357
    29  H    0.440601
    30  H    0.392727
 Sum of Mulliken charges =  -0.00000

 Dipole moment (field-independent basis, Debye):
    X=             -2.0890    Y=              1.6794    Z=              1.6584  Tot=              3.1519
 Quadrupole moment (field-independent basis, Debye-Ang):
   XX=            -72.8657   YY=            -89.6022   ZZ=            -82.3542
   XY=              4.9851   XZ=             -5.6577   YZ=              6.0531

  Exact polarizability: 108.632   2.372  95.649  -0.764   3.321  81.266
 Approx polarizability: 138.305   4.578 123.155   0.313   4.673 123.050

                      1                      2                      3
                      A                      A                      A
 Frequencies --     27.5202                40.8377                44.8154
 Red. masses --      6.3027                 5.5602                 5.2753
 Frc consts  --      0.0028                 0.0055                 0.0062
 IR Inten    --      0.5447                 1.8895                 9.3228

                      4                      5                      6
                      A                      A                      A
 Frequencies --     64.5638                83.7902               110.3876
 Red. masses --      5.5507                 6.9098                 5.8557
 Frc consts  --      0.0136                 0.0286                 0.0420
 IR Inten    --      2.6059                 2.6685                 7.1203

                      7                      8                      9
                      A                      A                      A
 Frequencies --    158.5815               174.9000               192.8398
 Red. masses --      2.7352                 4.6491                 5.6880
 Frc consts  --      0.0405                 0.0838                 0.1246
 IR Inten    --      9.7067                 7.3283                 9.9085

                     10                     11                     12
                      A                      A                      A
 Frequencies --    221.6567               233.2648               258.0356
 Red. masses --      4.2844                 5.6011                 2.3062
 Frc consts  --      0.1240                 0.1796                 0.0905
 IR Inten    --      1.2117                 0.0875                23.2208

                     13                     14                     15
                      A                      A                      A
 Frequencies --    269.8355               280.8512               311.8865
 Red. masses --      3.8395                 1.6535                 2.7216
 Frc consts  --      0.1647                 0.0768                 0.1560
 IR Inten    --     15.7838                79.9842                28.4214

                     16                     17                     18
                      A                      A                      A
 Frequencies --    321.2779               333.3362               336.5861
 Red. masses --      1.4985                 1.4701                 1.7480
 Frc consts  --      0.0911                 0.0962                 0.1167
 IR Inten    --     10.7952               123.5549                15.5145

                     19                     20                     21
                      A                      A                      A
 Frequencies --    368.3332               371.3497               396.3720
 Red. masses --      2.0364                 2.5528                 1.7896
 Frc consts  --      0.1628                 0.2074                 0.1657
 IR Inten    --     62.7094                59.3699               122.3376

                     22                     23                     24
                      A                      A                      A
 Frequencies --    399.6740               422.9241               474.0885
 Red. masses --      1.8883                 3.9715                 2.9534
 Frc consts  --      0.1777                 0.4185                 0.3911
 IR Inten    --     30.4205                22.8209                44.8635

                     25                     26                     27
                      A                      A                      A
 Frequencies --    495.6124               513.6755               540.1127
 Red. masses --      3.8802                 1.4890                 2.0512
 Frc consts  --      0.5615                 0.2315                 0.3526
 IR Inten    --     38.5655               114.7323                63.9488

                     28                     29                     30
                      A                      A                      A
 Frequencies --    546.2705               604.5471               644.0408
 Red. masses --      1.4194                 3.3394                 1.2638
 Frc consts  --      0.2496                 0.7191                 0.3089
 IR Inten    --    138.7562                73.7613                51.6994

                     31                     32                     33
                      A                      A                      A
 Frequencies --    690.4770               724.8324               794.7176
 Red. masses --      3.4066                 1.1735                 2.7484
 Frc consts  --      0.9569                 0.3633                 1.0227
 IR Inten    --     16.5312               144.7317                30.6704

                     34                     35                     36
                      A                      A                      A
 Frequencies --    827.0043               856.5312               904.7739
 Red. masses --      1.6616                 2.4442                 1.9311
 Frc consts  --      0.6696                 1.0565                 0.9314
 IR Inten    --     74.2040               127.3065                12.5696

                     37                     38                     39
                      A                      A                      A
 Frequencies --    965.3071              1016.1894              1032.3184
 Red. masses --      3.0290                 3.3573                 1.2006
 Frc consts  --      1.6629                 2.0426                 0.7539
 IR Inten    --     31.7497                92.0834                86.1628

                     40                     41                     42
                      A                      A                      A
 Frequencies --   1043.0469              1065.5061              1075.5936
 Red. masses --      2.4932                 3.3780                 3.6652
 Frc consts  --      1.5982                 2.2596                 2.4983
 IR Inten    --     80.1490               151.0398                 9.2238

                     43                     44                     45
                      A                      A                      A
 Frequencies --   1087.5255              1109.9504              1110.7625
 Red. masses --      4.3725                 1.9860                 4.2941
 Frc consts  --      3.0469                 1.4416                 3.1215
 IR Inten    --    155.4970                 9.3735               104.7710

                     46                     47                     48
                      A                      A                      A
 Frequencies --   1130.9008              1154.3610              1173.9191
 Red. masses --      3.8912                 2.9201                 3.1207
 Frc consts  --      2.9321                 2.2926                 2.5339
 IR Inten    --     40.0237                11.3892                53.2033

                     49                     50                     51
                      A                      A                      A
 Frequencies --   1208.0699              1259.4454              1269.3235
 Red. masses --      1.4188                 1.1495                 1.1730
 Frc consts  --      1.2200                 1.0743                 1.1135
 IR Inten    --     19.7914                29.0790                65.2416

                     52                     53                     54
                      A                      A                      A
 Frequencies --   1289.3710              1321.4104              1333.9257
 Red. masses --      1.2146                 1.1393                 1.2258
 Frc consts  --      1.1897                 1.1721                 1.2851
 IR Inten    --     26.5851                18.0626                53.8320

                     55                     56                     57
                      A                      A                      A
 Frequencies --   1362.5343              1374.7874              1381.5725
 Red. masses --      1.2320                 1.2943                 1.2111
 Frc consts  --      1.3475                 1.4413                 1.3620
 IR Inten    --     10.2476                52.9493                22.9215

                     58                     59                     60
                      A                      A                      A
 Frequencies --   1392.2001              1403.1147              1422.8389
 Red. masses --      1.2441                 1.2317                 1.3249
 Frc consts  --      1.4207                 1.4287                 1.5803
 IR Inten    --     50.7142                 8.2854                47.7366

                     61                     62                     63
                      A                      A                      A
 Frequencies --   1428.6571              1446.3266              1463.0445
 Red. masses --      1.3570                 1.4077                 1.6627
 Frc consts  --      1.6319                 1.7349                 2.0970
 IR Inten    --     32.2595                30.2573                 7.9300

                     64                     65                     66
                      A                      A                      A
 Frequencies --   1489.3349              1536.1285              1537.2425
 Red. masses --      1.5985                 1.3513                 1.0918
 Frc consts  --      2.0891                 1.8787                 1.5201
 IR Inten    --     28.1076                23.7853                 2.3188

                     67                     68                     69
                      A                      A                      A
 Frequencies --   1722.4629              1752.5399              2967.2108
 Red. masses --      1.0781                 1.0692                 1.0820
 Frc consts  --      1.8845                 1.9348                 5.6126
 IR Inten    --     85.4794                43.2088                26.6448

                     70                     71                     72
                      A                      A                      A
 Frequencies --   3022.4378              3035.6562              3043.0306
 Red. masses --      1.0843                 1.0846                 1.0682
 Frc consts  --      5.8361                 5.8890                 5.8281
 IR Inten    --     30.7946                23.2765                39.9784

                     73                     74                     75
                      A                      A                      A
 Frequencies --   3044.3737              3056.4611              3123.7900
 Red. masses --      1.0839                 1.0866                 1.0998
 Frc consts  --      5.9191                 5.9806                 6.3230
 IR Inten    --     23.1546                60.5741                22.4800

                     76                     77                     78
                      A                      A                      A
 Frequencies --   3285.0124              3411.6302              3499.4996
 Red. masses --      1.0689                 1.0619                 1.0588
 Frc consts  --      6.7963                 7.2820                 7.6399
 IR Inten    --    567.3632               998.0073               671.7943

                     79                     80                     81
                      A                      A                      A
 Frequencies --   3634.8936              3697.9832              3734.6562
 Red. masses --      1.0658                 1.0647                 1.0662
 Frc consts  --      8.2969                 8.5788                 8.7614
 IR Inten    --    169.0713                43.5994                23.7815

                     82                     83                     84
                      A                      A                      A
 Frequencies --   3736.9909              3786.6724              3798.9372
 Red. masses --      1.0660                 1.0682                 1.0681
 Frc consts  --      8.7708                 9.0243                 9.0817
 IR Inten    --     26.2785                57.8194                48.5302

 - Thermochemistry -
 -------------------
 Temperature   298.150 Kelvin.  Pressure   1.00000 Atm.
 Atom     1 has atomic number  8 and mass  15.99491

 Molecular mass:   216.08452 amu.
 Principal axes and moments of inertia in atomic units:
                           1         2         3
     Eigenvalues --  2457.145753775.885375373.23185
           X            1.00000  -0.00240  -0.00024
           Y            0.00240   0.99997   0.00721
           Z            0.00022  -0.00721   0.99997
 This molecule is an asymmetric top.
 Rotational symmetry number  1.
 Warning -- assumption of classical behavior for rotation
           may cause significant error
 Rotational temperatures (Kelvin)      0.03525     0.02294     0.01612
 Rotational constants (GHZ):           0.73449     0.47797     0.33588
 Zero-point vibrational energy     653635.1 (Joules/Mol)
                                  156.22253 (Kcal/Mol)
 Warning -- explicit consideration of  29 degrees of freedom as
           vibrations may cause significant error
 Vibrational temperatures:     39.60    58.76    64.48    92.89   120.56
          (Kelvin)            158.82   228.16   251.64   277.45   318.91
                              335.62   371.26   388.23   404.08   448.73
                              462.25   479.60   484.27   529.95   534.29
                              570.29   575.04   608.49   682.11   713.07
                              739.06   777.10   785.96   869.81   926.63
                              993.44  1042.87  1143.42  1189.87  1232.36
                             1301.77  1388.86  1462.07  1485.27  1500.71
                             1533.02  1547.54  1564.70  1596.97  1598.14
                             1627.11  1660.87  1689.01  1738.14  1812.06
                             1826.27  1855.11  1901.21  1919.22  1960.38
                             1978.01  1987.77  2003.06  2018.77  2047.15
                             2055.52  2080.94  2104.99  2142.82  2210.14
                             2211.75  2478.24  2521.51  4269.15  4348.61
                             4367.63  4378.24  4380.17  4397.56  4494.43
                             4726.39  4908.57  5034.99  5229.79  5320.57
                             5373.33  5376.69  5448.17  5465.82

 Zero-point correction=                           0.248956 (Hartree/Particle)
 Thermal correction to Energy=                    0.266366
 Thermal correction to Enthalpy=                  0.267310
 Thermal correction to Gibbs Free Energy=         0.203525
 Sum of electronic and zero-point Energies=           -839.751574
 Sum of electronic and thermal Energies=              -839.734165
 Sum of electronic and thermal Enthalpies=            -839.733220
 Sum of electronic and thermal Free Energies=         -839.797006

                     E (Thermal)             CV                S
                      KCal/Mol        Cal/Mol-Kelvin    Cal/Mol-Kelvin
 Total                  167.147             63.896            134.247
 Electronic               0.000              0.000              0.000
 Translational            0.889              2.981             42.015
 Rotational               0.889              2.981             32.278
 Vibrational            165.370             57.935             59.955
 Vibration     1          0.593              1.984              6.001
 Vibration     2          0.594              1.981              5.218
 Vibration     3          0.595              1.979              5.034
 Vibration     4          0.597              1.971              4.313
 Vibration     5          0.601              1.960              3.800
 Vibration     6          0.606              1.941              3.262
 Vibration     7          0.621              1.893              2.567
 Vibration     8          0.627              1.873              2.382
 Vibration     9          0.635              1.850              2.200
 Vibration    10          0.648              1.808              1.946
 Vibration    11          0.654              1.790              1.854
 Vibration    12          0.667              1.749              1.675
 Vibration    13          0.674              1.729              1.597
 Vibration    14          0.681              1.709              1.528
 Vibration    15          0.700              1.651              1.352
 Vibration    16          0.707              1.633              1.304
 Vibration    17          0.715              1.609              1.244
 Vibration    18          0.717              1.602              1.228
 Vibration    19          0.741              1.537              1.087
 Vibration    20          0.743              1.531              1.074
 Vibration    21          0.763              1.478              0.976
 Vibration    22          0.766              1.471              0.964
 Vibration    23          0.785              1.420              0.882
 Vibration    24          0.831              1.308              0.726
 Vibration    25          0.851              1.260              0.669
 Vibration    26          0.869              1.220              0.625
 Vibration    27          0.895              1.161              0.565
 Vibration    28          0.901              1.148              0.552
 Vibration    29          0.963              1.022              0.442

 Normal termination of Gaussian 09 at Mon Jan 16 01:46:48 2017.
