 Gaussian 09, Revision D.01,
 Gaussian 09:  ES64L-G09RevD.01 24-Apr-2013

 ----------------------
 # OPT B3LYP 6-31G FREQ
 ----------------------

 --------
 BeH2.LOG
 --------
 Symbolic Z-matrix:
 Charge =  0 Multiplicity = 1

 SCF Done:  E(RB3LYP) =  -15.9130594863     A.U. after    9 cycles
 SCF Done:  E(RB3LYP) =  -15.9130620776     A.U. after    6 cycles
 Optimization completed.
    -- Stationary point found.
 Normal termination of Gaussian 09 at Thu Mar  9 16:32:02 2017.

 -----------------------------------------------------------------
 #N Geom=AllCheck Guess=TCheck SCRF=Check GenChk RB3LYP/6-31G Freq
 -----------------------------------------------------------------

 Structure from the checkpoint file:  "/home/iawad/Gau-13595.chk"
 --------
 BeH2.LOG
 --------
 Charge =  0 Multiplicity = 1

                         Standard orientation:
 ---------------------------------------------------------------------
 Center     Atomic      Atomic             Coordinates (Angstroms)
 Number     Number       Type             X           Y           Z
 ---------------------------------------------------------------------
      1          4           0        0.000000    0.000000    0.000000
      2          1           0        0.000000    0.000000    1.330980
      3          1           0        0.000000    0.000000   -1.330980
 ---------------------------------------------------------------------

 SCF Done:  E(RB3LYP) =  -15.9130620776     A.U. after    1 cycles

 The electronic state is 1-SGG.
 Alpha  occ. eigenvalues --   -4.03409  -0.35021  -0.31600
 Alpha virt. eigenvalues --   -0.02711  -0.02711   0.08559   0.19015   0.30272
 Alpha virt. eigenvalues --    0.30272   0.30456   0.39816   0.96291   1.19150

 Mulliken charges:
               1
     1  Be   0.151093
     2  H   -0.075546
     3  H   -0.075546
 Sum of Mulliken charges =   0.00000

 Dipole moment (field-independent basis, Debye):
    X=              0.0000    Y=              0.0000    Z=              0.0000  Tot=              0.0000
 Quadrupole moment (field-independent basis, Debye-Ang):
   XX=             -6.5859   YY=             -6.5859   ZZ=            -11.2135
   XY=              0.0000   XZ=              0.0000   YZ=              0.0000

  Exact polarizability:  14.123   0.000  14.123   0.000   0.000  16.535
 Approx polarizability:  15.226   0.000  15.226   0.000   0.000  18.425

                      1                      2                      3
                     PIU                    PIU                    SGG
 Frequencies --    760.7827               760.7827              2026.0637
 Red. masses --      1.2031                 1.2031                 1.0078
 Frc consts  --      0.4103                 0.4103                 2.4375
 IR Inten    --    234.3039               234.3039                 0.0000

                      4
                     SGU
 Frequencies --   2274.0152
 Red. masses --      1.2031
 Frc consts  --      3.6657
 IR Inten    --    241.3125

 - Thermochemistry -
 -------------------
 Temperature   298.150 Kelvin.  Pressure   1.00000 Atm.
 Atom     1 has atomic number  4 and mass   9.01218

 Molecular mass:    11.02783 amu.
 Principal axes and moments of inertia in atomic units:
                           1         2         3
     Eigenvalues --     0.00000  12.75134  12.75134
           X            0.00000   1.00000   0.00000
           Y            0.00000   0.00000   1.00000
           Z            1.00000   0.00000   0.00000
 This molecule is a prolate symmetric top.
 Rotational symmetry number  2.
 Rotational temperature (Kelvin)      6.79253
 Rotational constant (GHZ):         141.533440
 Zero-point vibrational energy      34821.2 (Joules/Mol)
                                    8.32246 (Kcal/Mol)
 Vibrational temperatures:   1094.60  1094.60  2915.05  3271.80
          (Kelvin)

 Zero-point correction=                           0.013263 (Hartree/Particle)
 Thermal correction to Energy=                    0.015805
 Thermal correction to Enthalpy=                  0.016749
 Thermal correction to Gibbs Free Energy=        -0.003091
 Sum of electronic and zero-point Energies=            -15.899799
 Sum of electronic and thermal Energies=               -15.897257
 Sum of electronic and thermal Enthalpies=             -15.896313
 Sum of electronic and thermal Free Energies=          -15.916153

                     E (Thermal)             CV                S
                      KCal/Mol        Cal/Mol-Kelvin    Cal/Mol-Kelvin
 Total                    9.918              6.418             41.756
 Electronic               0.000              0.000              0.000
 Translational            0.889              2.981             33.146
 Rotational               0.592              1.987              8.125
 Vibrational              8.436              1.450              0.485

 Optimization completed.
    -- Stationary point found.
 Normal termination of Gaussian 09 at Thu Mar  9 16:32:04 2017.
