 Gaussian 09, Revision D.01,
 Gaussian 09:  ES64L-G09RevD.01 24-Apr-2013

 ----------------------
 # OPT B3LYP 6-31G FREQ
 ----------------------

 -------
 BH3.LOG
 -------
 Symbolic Z-matrix:
 Charge =  0 Multiplicity = 1

 SCF Done:  E(RB3LYP) =  -26.6059579066     A.U. after    9 cycles
 SCF Done:  E(RB3LYP) =  -26.6059593401     A.U. after    5 cycles
 Optimization completed.
    -- Stationary point found.
 Normal termination of Gaussian 09 at Thu Mar  9 16:32:07 2017.

 -----------------------------------------------------------------
 #N Geom=AllCheck Guess=TCheck SCRF=Check GenChk RB3LYP/6-31G Freq
 -----------------------------------------------------------------

 Structure from the checkpoint file:  "/home/iawad/Gau-13758.chk"
 -------
 BH3.LOG
 -------
 Charge =  0 Multiplicity = 1

                         Standard orientation:
 ---------------------------------------------------------------------
 Center     Atomic      Atomic             Coordinates (Angstroms)
 Number     Number       Type             X           Y           Z
 ---------------------------------------------------------------------
      1          5           0        0.000000    0.000000    0.000000
      2          1           0        0.000000    1.193354    0.000000
      3          1           0        1.033475   -0.596677    0.000000
      4          1           0       -1.033475   -0.596677    0.000000
 ---------------------------------------------------------------------

 SCF Done:  E(RB3LYP) =  -26.6059593401     A.U. after    1 cycles

 The electronic state is 1-A1'.
 Alpha  occ. eigenvalues --   -6.76605  -0.51533  -0.35301  -0.35301
 Alpha virt. eigenvalues --   -0.06815   0.16641   0.17957   0.17957   0.38581
 Alpha virt. eigenvalues --    0.38581   0.44252   0.48798   0.95327   1.00906
 Alpha virt. eigenvalues --    1.00906

 Mulliken charges:
               1
     1  B    0.096283
     2  H   -0.032094
     3  H   -0.032094
     4  H   -0.032094
 Sum of Mulliken charges =   0.00000

 Dipole moment (field-independent basis, Debye):
    X=              0.0000    Y=              0.0000    Z=              0.0000  Tot=              0.0000
 Quadrupole moment (field-independent basis, Debye-Ang):
   XX=             -9.1031   YY=             -9.1031   ZZ=             -6.9974
   XY=              0.0000   XZ=              0.0000   YZ=              0.0000

  Exact polarizability:  15.779   0.000  15.780   0.000   0.000   7.394
 Approx polarizability:  18.467   0.000  18.467   0.000   0.000   8.521

                      1                      2                      3
                     A2"                    E'                     E'
 Frequencies --   1152.5270              1209.4850              1209.4873
 Red. masses --      1.2531                 1.1081                 1.1081
 Frc consts  --      0.9807                 0.9551                 0.9551
 IR Inten    --     93.2534                13.2695                13.2727

                      4                      5                      6
                     A1'                    E'                     E'
 Frequencies --   2577.2672              2715.6231              2715.6238
 Red. masses --      1.0078                 1.1263                 1.1263
 Frc consts  --      3.9442                 4.8940                 4.8940
 IR Inten    --      0.0000               135.5269               135.5139

 - Thermochemistry -
 -------------------
 Temperature   298.150 Kelvin.  Pressure   1.00000 Atm.
 Atom     1 has atomic number  5 and mass  11.00931

 Molecular mass:    14.03278 amu.
 Principal axes and moments of inertia in atomic units:
                           1         2         3
     Eigenvalues --     7.68798   7.68798  15.37597
           X            0.70711   0.70711   0.00000
           Y           -0.70711   0.70711   0.00000
           Z            0.00000   0.00000   1.00000
 This molecule is an oblate symmetric top.
 Rotational symmetry number  6.
 Rotational temperatures (Kelvin)     11.26613    11.26613     5.63306
 Rotational constants (GHZ):         234.74832   234.74832   117.37416
 Zero-point vibrational energy      69263.9 (Joules/Mol)
                                   16.55446 (Kcal/Mol)
 Vibrational temperatures:   1658.23  1740.18  1740.18  3708.11  3907.17
          (Kelvin)           3907.17

 Zero-point correction=                           0.026381 (Hartree/Particle)
 Thermal correction to Energy=                    0.029266
 Thermal correction to Enthalpy=                  0.030211
 Thermal correction to Gibbs Free Energy=         0.008827
 Sum of electronic and zero-point Energies=            -26.579578
 Sum of electronic and thermal Energies=               -26.576693
 Sum of electronic and thermal Enthalpies=             -26.575749
 Sum of electronic and thermal Free Energies=          -26.597132

                     E (Thermal)             CV                S
                      KCal/Mol        Cal/Mol-Kelvin    Cal/Mol-Kelvin
 Total                   18.365              6.600             45.005
 Electronic               0.000              0.000              0.000
 Translational            0.889              2.981             33.864
 Rotational               0.889              2.981             11.011
 Vibrational             16.587              0.638              0.130

 Optimization completed.
    -- Stationary point found.
 Normal termination of Gaussian 09 at Thu Mar  9 16:32:09 2017.
