 Gaussian 09, Revision D.01,
 Gaussian 09:  ES64L-G09RevD.01 24-Apr-2013

 ----------------------
 # OPT B3LYP 6-31G FREQ
 ----------------------

 ------
 FH.LOG
 ------
 Symbolic Z-matrix:
 Charge =  0 Multiplicity = 1

 SCF Done:  E(RB3LYP) =  -100.402991806     A.U. after    9 cycles
 SCF Done:  E(RB3LYP) =  -100.403527192     A.U. after    7 cycles
 SCF Done:  E(RB3LYP) =  -100.403536570     A.U. after    6 cycles
 Optimization completed.
    -- Stationary point found.
 Normal termination of Gaussian 09 at Thu Mar  9 16:32:18 2017.

 -----------------------------------------------------------------
 #N Geom=AllCheck Guess=TCheck SCRF=Check GenChk RB3LYP/6-31G Freq
 -----------------------------------------------------------------

 Structure from the checkpoint file:  "/home/iawad/Gau-13981.chk"
 ------
 FH.LOG
 ------
 Charge =  0 Multiplicity = 1

                         Standard orientation:
 ---------------------------------------------------------------------
 Center     Atomic      Atomic             Coordinates (Angstroms)
 Number     Number       Type             X           Y           Z
 ---------------------------------------------------------------------
      1          9           0        0.000000    0.000000    0.094926
      2          1           0        0.000000    0.000000   -0.854332
 ---------------------------------------------------------------------

 SCF Done:  E(RB3LYP) =  -100.403536570     A.U. after    1 cycles

 The electronic state is 1-SG.
 Alpha  occ. eigenvalues --  -24.65992  -1.17355  -0.51088  -0.37555  -0.37555
 Alpha virt. eigenvalues --    0.04747   0.80268   1.17973   1.17973   1.28838
 Alpha virt. eigenvalues --    1.68609

 Mulliken charges:
               1
     1  F   -0.433893
     2  H    0.433893
 Sum of Mulliken charges =   0.00000

 Dipole moment (field-independent basis, Debye):
    X=              0.0000    Y=              0.0000    Z=             -2.1500  Tot=              2.1500
 Quadrupole moment (field-independent basis, Debye-Ang):
   XX=             -5.4043   YY=             -5.4043   ZZ=             -3.5009
   XY=              0.0000   XZ=              0.0000   YZ=              0.0000

  Exact polarizability:   0.677   0.000   0.677   0.000   0.000   4.527
 Approx polarizability:   0.653   0.000   0.653   0.000   0.000   5.556

                      1
                     SG
 Frequencies --   3740.2907
 Red. masses --      1.0583
 Frc consts  --      8.7232
 IR Inten    --     19.6162

 - Thermochemistry -
 -------------------
 Temperature   298.150 Kelvin.  Pressure   1.00000 Atm.
 Atom     1 has atomic number  9 and mass  18.99840

 Molecular mass:    20.00623 amu.
 Principal axes and moments of inertia in atomic units:
                           1         2         3
     Eigenvalues --     0.00000   3.07966   3.07966
           X            0.00000   0.00000   1.00000
           Y            0.00000   1.00000   0.00000
           Z            1.00000   0.00000   0.00000
 This molecule is a prolate symmetric top.
 Rotational symmetry number  1.
 Rotational temperature (Kelvin)     28.12444
 Rotational constant (GHZ):         586.018897
 Zero-point vibrational energy      22371.9 (Joules/Mol)
                                    5.34701 (Kcal/Mol)
 Vibrational temperatures:   5381.44
          (Kelvin)

 Zero-point correction=                           0.008521 (Hartree/Particle)
 Thermal correction to Energy=                    0.010881
 Thermal correction to Enthalpy=                  0.011826
 Thermal correction to Gibbs Free Energy=        -0.007940
 Sum of electronic and zero-point Energies=           -100.395016
 Sum of electronic and thermal Energies=              -100.392655
 Sum of electronic and thermal Enthalpies=            -100.391711
 Sum of electronic and thermal Free Energies=         -100.411477

                     E (Thermal)             CV                S
                      KCal/Mol        Cal/Mol-Kelvin    Cal/Mol-Kelvin
 Total                    6.828              4.968             41.600
 Electronic               0.000              0.000              0.000
 Translational            0.889              2.981             34.922
 Rotational               0.592              1.987              6.679
 Vibrational              5.347              0.000              0.000

 Optimization completed.
    -- Stationary point found.
 Normal termination of Gaussian 09 at Thu Mar  9 16:32:19 2017.
