 Gaussian 09, Revision D.01,
 Gaussian 09:  ES64L-G09RevD.01 24-Apr-2013

 ----------------------
 # OPT B3LYP 6-31G FREQ
 ----------------------

 -------
 FLi.LOG
 -------
 Symbolic Z-matrix:
 Charge =  0 Multiplicity = 1

 SCF Done:  E(RB3LYP) =  -106.844525504     A.U. after   11 cycles
 SCF Done:  E(RB3LYP) =  -107.156162883     A.U. after    9 cycles
 SCF Done:  E(RB3LYP) =  -107.403988758     A.U. after    9 cycles
 SCF Done:  E(RB3LYP) =  -107.404131193     A.U. after    7 cycles
 SCF Done:  E(RB3LYP) =  -107.404245361     A.U. after    7 cycles
 Optimization completed.
    -- Stationary point found.
 Normal termination of Gaussian 09 at Thu Mar  9 20:13:40 2017.

 -----------------------------------------------------------------
 #N Geom=AllCheck Guess=TCheck SCRF=Check GenChk RB3LYP/6-31G Freq
 -----------------------------------------------------------------

 Structure from the checkpoint file:  "/home/iawad/Gau-25908.chk"
 -------
 FLi.LOG
 -------
 Charge =  0 Multiplicity = 1

                         Standard orientation:
 ---------------------------------------------------------------------
 Center     Atomic      Atomic             Coordinates (Angstroms)
 Number     Number       Type             X           Y           Z
 ---------------------------------------------------------------------
      1          9           0        0.000000    0.000000    0.391962
      2          3           0        0.000000    0.000000   -1.175886
 ---------------------------------------------------------------------

 SCF Done:  E(RB3LYP) =  -107.404245361     A.U. after    1 cycles

 The electronic state is 1-SG.
 Alpha  occ. eigenvalues --  -24.52397  -2.00162  -0.98501  -0.27368  -0.26027
 Alpha  occ. eigenvalues --   -0.26027
 Alpha virt. eigenvalues --   -0.05856   0.02176   0.02176   0.06088   0.13338
 Alpha virt. eigenvalues --    0.14332   0.14332   0.28468   1.34386   1.34386
 Alpha virt. eigenvalues --    1.38745   1.83346

 Mulliken charges:
               1
     1  F   -0.591852
     2  Li   0.591852
 Sum of Mulliken charges =   0.00000

 Dipole moment (field-independent basis, Debye):
    X=              0.0000    Y=              0.0000    Z=             -5.7875  Tot=              5.7875
 Quadrupole moment (field-independent basis, Debye-Ang):
   XX=             -7.6027   YY=             -7.6027   ZZ=             -2.0061
   XY=              0.0000   XZ=              0.0000   YZ=              0.0000

  Exact polarizability:   6.960   0.000   6.960   0.000   0.000   9.900
 Approx polarizability:   5.956   0.000   5.956   0.000   0.000  13.407

                      1
                     SG
 Frequencies --    970.1820
 Red. masses --      8.4540
 Frc consts  --      4.6884
 IR Inten    --     77.2236

 - Thermochemistry -
 -------------------
 Temperature   298.150 Kelvin.  Pressure   1.00000 Atm.
 Atom     1 has atomic number  9 and mass  18.99840

 Molecular mass:    26.01441 amu.
 Principal axes and moments of inertia in atomic units:
                           1         2         3
     Eigenvalues --     0.00000  44.97789  44.97789
           X            0.00000   0.00000   1.00000
           Y            0.00000   1.00000   0.00000
           Z            1.00000   0.00000   0.00000
 This molecule is a prolate symmetric top.
 Rotational symmetry number  1.
 Rotational temperature (Kelvin)      1.92570
 Rotational constant (GHZ):          40.125079
 Zero-point vibrational energy       5803.0 (Joules/Mol)
                                    1.38694 (Kcal/Mol)
 Vibrational temperatures:   1395.87
          (Kelvin)

 Zero-point correction=                           0.002210 (Hartree/Particle)
 Thermal correction to Energy=                    0.004612
 Thermal correction to Enthalpy=                  0.005556
 Thermal correction to Gibbs Free Energy=        -0.017163
 Sum of electronic and zero-point Energies=           -107.402035
 Sum of electronic and thermal Energies=              -107.399633
 Sum of electronic and thermal Enthalpies=            -107.398689
 Sum of electronic and thermal Free Energies=         -107.421409

                     E (Thermal)             CV                S
                      KCal/Mol        Cal/Mol-Kelvin    Cal/Mol-Kelvin
 Total                    2.894              5.379             47.817
 Electronic               0.000              0.000              0.000
 Translational            0.889              2.981             35.704
 Rotational               0.592              1.987             12.007
 Vibrational              1.413              0.411              0.105

 Optimization completed.
    -- Stationary point found.
 Normal termination of Gaussian 09 at Thu Mar  9 20:13:42 2017.
