 Gaussian 09, Revision D.01,
 Gaussian 09:  ES64L-G09RevD.01 24-Apr-2013

 ----------------------
 # OPT B3LYP 6-31G FREQ
 ----------------------

 -------
 NH3.LOG
 -------
 Symbolic Z-matrix:
 Charge =  0 Multiplicity = 1

 SCF Done:  E(RB3LYP) =  -56.5282824573     A.U. after   10 cycles
 SCF Done:  E(RB3LYP) =  -56.5306964714     A.U. after   10 cycles
 SCF Done:  E(RB3LYP) =  -56.5316924948     A.U. after   10 cycles
 SCF Done:  E(RB3LYP) =  -56.5318783600     A.U. after   10 cycles
 SCF Done:  E(RB3LYP) =  -56.5318850714     A.U. after    7 cycles
 SCF Done:  E(RB3LYP) =  -56.5318861607     A.U. after    7 cycles
 Optimization completed.
    -- Stationary point found.
 Normal termination of Gaussian 09 at Thu Mar  9 16:32:37 2017.

 -----------------------------------------------------------------
 #N Geom=AllCheck Guess=TCheck SCRF=Check GenChk RB3LYP/6-31G Freq
 -----------------------------------------------------------------

 Structure from the checkpoint file:  "/home/iawad/Gau-14205.chk"
 -------
 NH3.LOG
 -------
 Charge =  0 Multiplicity = 1

                         Standard orientation:
 ---------------------------------------------------------------------
 Center     Atomic      Atomic             Coordinates (Angstroms)
 Number     Number       Type             X           Y           Z
 ---------------------------------------------------------------------
      1          7           0        0.000000    0.060076    0.000000
      2          1           0        0.985860   -0.140102    0.000000
      3          1           0       -0.492930   -0.140214    0.853767
      4          1           0       -0.492930   -0.140214   -0.853767
 ---------------------------------------------------------------------

 SCF Done:  E(RB3LYP) =  -56.5318861607     A.U. after    1 cycles

 The electronic state is 1-A'.
 Alpha  occ. eigenvalues --  -14.28490  -0.83210  -0.46683  -0.46682  -0.21976
 Alpha virt. eigenvalues --    0.08510   0.17592   0.17592   0.72281   0.74487
 Alpha virt. eigenvalues --    0.74489   0.86605   0.95536   0.95537   1.20520

 Mulliken charges:
               1
     1  N   -0.864731
     2  H    0.288246
     3  H    0.288242
     4  H    0.288242
 Sum of Mulliken charges =   0.00000

 Dipole moment (field-independent basis, Debye):
    X=              0.0001    Y=             -1.3417    Z=              0.0000  Tot=              1.3417
 Quadrupole moment (field-independent basis, Debye-Ang):
   XX=             -5.6695   YY=             -9.2039   ZZ=             -5.6696
   XY=              0.0003   XZ=              0.0000   YZ=              0.0000

  Exact polarizability:   8.578   0.000   3.028   0.000   0.000   8.578
 Approx polarizability:   9.722   0.001   3.079   0.000   0.000   9.722

                      1                      2                      3
                     A'                     A"                     A'
 Frequencies --    461.8936              1681.3649              1681.3905
 Red. masses --      1.2008                 1.0861                 1.0861
 Frc consts  --      0.1509                 1.8091                 1.8091
 IR Inten    --    593.0458                41.3550                41.3565

                      4                      5                      6
                     A'                     A"                     A'
 Frequencies --   3574.7917              3774.5303              3774.6898
 Red. masses --      1.0120                 1.0981                 1.0981
 Frc consts  --      7.6193                 9.2176                 9.2184
 IR Inten    --      0.0604                 6.8205                 6.8253

 - Thermochemistry -
 -------------------
 Temperature   298.150 Kelvin.  Pressure   1.00000 Atm.
 Atom     1 has atomic number  7 and mass  14.00307

 Molecular mass:    17.02655 amu.
 Principal axes and moments of inertia in atomic units:
                           1         2         3
     Eigenvalues --     5.60285   5.60301  10.49369
           X            1.00000   0.00000  -0.00008
           Y            0.00008   0.00000   1.00000
           Z            0.00000   1.00000   0.00000
 This molecule is an asymmetric top.
 Rotational symmetry number  1.
 Rotational temperatures (Kelvin)     15.45888    15.45845     8.25390
 Rotational constants (GHZ):         322.11110   322.10227   171.98351
 Zero-point vibrational energy      89412.8 (Joules/Mol)
                                   21.37018 (Kcal/Mol)
 Warning -- explicit consideration of   1 degrees of freedom as
           vibrations may cause significant error
 Vibrational temperatures:    664.56  2419.11  2419.14  5143.32  5430.70
          (Kelvin)           5430.93

 Zero-point correction=                           0.034056 (Hartree/Particle)
 Thermal correction to Energy=                    0.037147
 Thermal correction to Enthalpy=                  0.038091
 Thermal correction to Gibbs Free Energy=         0.014916
 Sum of electronic and zero-point Energies=            -56.497831
 Sum of electronic and thermal Energies=               -56.494740
 Sum of electronic and thermal Enthalpies=             -56.493795
 Sum of electronic and thermal Free Energies=          -56.516970

                     E (Thermal)             CV                S
                      KCal/Mol        Cal/Mol-Kelvin    Cal/Mol-Kelvin
 Total                   23.310              7.375             48.775
 Electronic               0.000              0.000              0.000
 Translational            0.889              2.981             34.441
 Rotational               0.889              2.981             13.563
 Vibrational             21.532              1.413              0.771
 Vibration     1          0.820              1.335              0.761

 Optimization completed.
    -- Stationary point found.
 Normal termination of Gaussian 09 at Thu Mar  9 16:32:40 2017.
