 Gaussian 09, Revision D.01,
 Gaussian 09:  ES64L-G09RevD.01 24-Apr-2013

 ----------------------
 # OPT B3LYP 6-31G FREQ
 ----------------------

 -------
 OH2.LOG
 -------
 Symbolic Z-matrix:
 Charge =  0 Multiplicity = 1

 SCF Done:  E(RB3LYP) =  -76.3852367339     A.U. after    8 cycles
 SCF Done:  E(RB3LYP) =  -76.3860770047     A.U. after    8 cycles
 SCF Done:  E(RB3LYP) =  -76.3861166050     A.U. after    6 cycles
 Optimization completed.
    -- Stationary point found.
 Normal termination of Gaussian 09 at Thu Mar  9 16:32:44 2017.

 -----------------------------------------------------------------
 #N Geom=AllCheck Guess=TCheck SCRF=Check GenChk RB3LYP/6-31G Freq
 -----------------------------------------------------------------

 Structure from the checkpoint file:  "/home/iawad/Gau-14475.chk"
 -------
 OH2.LOG
 -------
 Charge =  0 Multiplicity = 1

                         Standard orientation:
 ---------------------------------------------------------------------
 Center     Atomic      Atomic             Coordinates (Angstroms)
 Number     Number       Type             X           Y           Z
 ---------------------------------------------------------------------
      1          8           0        0.000000    0.000000    0.114347
      2          1           0        0.000000    0.791000   -0.457387
      3          1           0        0.000000   -0.791000   -0.457387
 ---------------------------------------------------------------------

 SCF Done:  E(RB3LYP) =  -76.3861166050     A.U. after    1 cycles

 The electronic state is 1-A1.
 Alpha  occ. eigenvalues --  -19.13359  -1.00637  -0.52943  -0.34862  -0.28961
 Alpha virt. eigenvalues --    0.05277   0.14237   0.82186   0.85102   0.89052
 Alpha virt. eigenvalues --    0.94468   1.07115   1.40875

 Mulliken charges:
               1
     1  O   -0.717640
     2  H    0.358820
     3  H    0.358820
 Sum of Mulliken charges =   0.00000

 Dipole moment (field-independent basis, Debye):
    X=              0.0000    Y=              0.0000    Z=             -2.3989  Tot=              2.3989
 Quadrupole moment (field-independent basis, Debye-Ang):
   XX=             -7.2019   YY=             -4.1161   ZZ=             -6.2441
   XY=              0.0000   XZ=              0.0000   YZ=              0.0000

  Exact polarizability:   1.450   0.000   7.499   0.000   0.000   4.709
 Approx polarizability:   1.389   0.000   8.689   0.000   0.000   5.532

                      1                      2                      3
                     A1                     A1                     B2
 Frequencies --   1619.5529              3614.9735              3779.8971
 Red. masses --      1.0918                 1.0368                 1.0856
 Frc consts  --      1.6872                 7.9832                 9.1385
 IR Inten    --     68.3107                 4.4186                 8.7767

 - Thermochemistry -
 -------------------
 Temperature   298.150 Kelvin.  Pressure   1.00000 Atm.
 Atom     1 has atomic number  8 and mass  15.99491

 Molecular mass:    18.01056 amu.
 Principal axes and moments of inertia in atomic units:
                           1         2         3
     Eigenvalues --     2.08956   4.50366   6.59322
           X            0.00000   0.00000   1.00000
           Y            1.00000   0.00000   0.00000
           Z            0.00000   1.00000   0.00000
 This molecule is an asymmetric top.
 Rotational symmetry number  2.
 Rotational temperatures (Kelvin)     41.45072    19.23186    13.13679
 Rotational constants (GHZ):         863.69384   400.72744   273.72666
 Zero-point vibrational energy      53918.2 (Joules/Mol)
                                   12.88677 (Kcal/Mol)
 Vibrational temperatures:   2330.17  5201.13  5438.42
          (Kelvin)

 Zero-point correction=                           0.020536 (Hartree/Particle)
 Thermal correction to Energy=                    0.023372
 Thermal correction to Enthalpy=                  0.024316
 Thermal correction to Gibbs Free Energy=         0.002868
 Sum of electronic and zero-point Energies=            -76.365580
 Sum of electronic and thermal Energies=               -76.362745
 Sum of electronic and thermal Enthalpies=             -76.361801
 Sum of electronic and thermal Free Energies=          -76.383249

                     E (Thermal)             CV                S
                      KCal/Mol        Cal/Mol-Kelvin    Cal/Mol-Kelvin
 Total                   14.666              6.011             45.142
 Electronic               0.000              0.000              0.000
 Translational            0.889              2.981             34.608
 Rotational               0.889              2.981             10.527
 Vibrational             12.889              0.049              0.007

 Optimization completed.
    -- Stationary point found.
 Normal termination of Gaussian 09 at Thu Mar  9 16:32:46 2017.
