 Gaussian 09, Revision E.01,
 Gaussian 09:  ES64L-G09RevE.01 30-Nov-2015

 ------------------------------------------------------
 # opt=(modredundant,MaxCycle=1000) freq B3LYP/6-31G(d)
 ------------------------------------------------------

 ----------------------------------
 glo_2w_beta_ircr_boat2_B3LYP_631Gd
 ----------------------------------
 Symbolic Z-matrix:
 Charge =  0 Multiplicity = 1

 SCF Done:  E(RB3LYP) =  -839.992749940     A.U. after   14 cycles
 SCF Done:  E(RB3LYP) =  -839.999883122     A.U. after   12 cycles
 SCF Done:  E(RB3LYP) =  -840.000728605     A.U. after   11 cycles
 SCF Done:  E(RB3LYP) =  -840.000895632     A.U. after   11 cycles
 SCF Done:  E(RB3LYP) =  -840.001007108     A.U. after   10 cycles
 SCF Done:  E(RB3LYP) =  -840.001071342     A.U. after    9 cycles
 SCF Done:  E(RB3LYP) =  -840.001134612     A.U. after   10 cycles
 SCF Done:  E(RB3LYP) =  -840.001146957     A.U. after   10 cycles
 SCF Done:  E(RB3LYP) =  -840.001158558     A.U. after    8 cycles
 SCF Done:  E(RB3LYP) =  -840.001164343     A.U. after    8 cycles
 SCF Done:  E(RB3LYP) =  -840.001165479     A.U. after    7 cycles
 SCF Done:  E(RB3LYP) =  -840.001167843     A.U. after    7 cycles
 SCF Done:  E(RB3LYP) =  -840.001168548     A.U. after    7 cycles
 SCF Done:  E(RB3LYP) =  -840.001169039     A.U. after    7 cycles
 SCF Done:  E(RB3LYP) =  -840.001169081     A.U. after    7 cycles
 SCF Done:  E(RB3LYP) =  -840.001168909     A.U. after    7 cycles
 SCF Done:  E(RB3LYP) =  -840.001168725     A.U. after    7 cycles
 Optimization completed.
    -- Stationary point found.
 Normal termination of Gaussian 09 at Tue Jan 17 00:34:11 2017.

 --------------------------------------------------------------------
 #N Geom=AllCheck Guess=TCheck SCRF=Check GenChk RB3LYP/6-31G(d) Freq
 --------------------------------------------------------------------

 Structure from the checkpoint file:  "/scratch/10467668.yak.local/Gau-7375.chk"
 ----------------------------------
 glo_2w_beta_ircr_boat2_B3LYP_631Gd
 ----------------------------------
 Charge =  0 Multiplicity = 1

                         Standard orientation:
 ---------------------------------------------------------------------
 Center     Atomic      Atomic             Coordinates (Angstroms)
 Number     Number       Type             X           Y           Z
 ---------------------------------------------------------------------
      1          6           0       -0.516278    0.712147    1.261121
      2          8           0        0.543103   -0.166439    0.804982
      3          1           0        3.497946    0.340959   -0.737194
      4          1           0        0.509381    2.606133   -1.278932
      5          8           0        1.024555    3.049583   -0.578904
      6          1           0        1.869570    2.555017   -0.600758
      7          8           0        2.655031    0.797300   -0.595795
      8          1           0        2.267701    0.379393    0.200692
      9          6           0       -0.955323   -1.394588   -0.750944
     10          6           0        0.122909   -1.464578    0.377376
     11          1           0       -0.592669   -1.922955   -1.640158
     12          1           0       -0.322155   -1.996495    1.234507
     13          8           0       -2.163894   -2.039143   -0.386086
     14          1           0       -2.624613   -1.432288    0.225257
     15          6           0        1.377658   -2.201386   -0.107442
     16          8           0        2.515583   -2.017367    0.721044
     17          1           0        1.674416   -1.816125   -1.088113
     18          1           0        1.124513   -3.265542   -0.233297
     19          1           0        2.265751   -2.225949    1.635244
     20          1           0        0.379283    2.397623    0.932974
     21          6           0       -1.554253    0.902964    0.119986
     22          1           0       -1.605024    1.967560   -0.136295
     23          6           0       -1.191573    0.083145   -1.136707
     24          1           0       -2.037966    0.111316   -1.832849
     25          8           0       -2.818460    0.468673    0.658710
     26          1           0       -3.521047    0.765939    0.058115
     27          8           0       -0.095284    0.658428   -1.844005
     28          1           0        0.737794    0.481271   -1.364079
     29          8           0        0.051419    1.874025    1.711908
     30          1           0       -1.018150    0.227448    2.109714
 ---------------------------------------------------------------------

 SCF Done:  E(RB3LYP) =  -840.001168725     A.U. after    1 cycles

 The electronic state is 1-A.
 Alpha  occ. eigenvalues --  -19.18351 -19.17143 -19.16701 -19.16433 -19.16140
 Alpha  occ. eigenvalues --  -19.14491 -19.14299 -19.13879 -10.29258 -10.25347
 Alpha  occ. eigenvalues --  -10.25331 -10.25201 -10.25080 -10.24847  -1.07985
 Alpha  occ. eigenvalues --   -1.05078  -1.03777  -1.03339  -1.02208  -1.01872
 Alpha  occ. eigenvalues --   -1.00729  -0.99449  -0.78425  -0.77289  -0.69841
 Alpha  occ. eigenvalues --   -0.65783  -0.64175  -0.59641  -0.55799  -0.54936
 Alpha  occ. eigenvalues --   -0.54447  -0.53045  -0.51674  -0.51461  -0.50945
 Alpha  occ. eigenvalues --   -0.47743  -0.45964  -0.45595  -0.44965  -0.43299
 Alpha  occ. eigenvalues --   -0.42255  -0.40680  -0.40312  -0.39794  -0.38365
 Alpha  occ. eigenvalues --   -0.37553  -0.36755  -0.35096  -0.34778  -0.33441
 Alpha  occ. eigenvalues --   -0.32350  -0.31782  -0.30535  -0.29695  -0.29306
 Alpha  occ. eigenvalues --   -0.28206  -0.26341  -0.25693
 Alpha virt. eigenvalues --    0.03487   0.04671   0.06946   0.08221   0.10626
 Alpha virt. eigenvalues --    0.10708   0.11078   0.11840   0.12931   0.14635
 Alpha virt. eigenvalues --    0.15048   0.15424   0.16631   0.17125   0.19162

 Mulliken charges:
               1
     1  C    0.356537
     2  O   -0.540464
     3  H    0.412066
     4  H    0.409945
     5  O   -0.828221
     6  H    0.430764
     7  O   -0.823077
     8  H    0.448202
     9  C    0.077768
    10  C    0.096563
    11  H    0.152688
    12  H    0.135351
    13  O   -0.650549
    14  H    0.410118
    15  C   -0.069086
    16  O   -0.621101
    17  H    0.155106
    18  H    0.149393
    19  H    0.400525
    20  H    0.435781
    21  C    0.027768
    22  H    0.156438
    23  C    0.098467
    24  H    0.141044
    25  O   -0.636345
    26  H    0.408380
    27  O   -0.672899
    28  H    0.434840
    29  O   -0.644725
    30  H    0.148724
 Sum of Mulliken charges =   0.00000

 Dipole moment (field-independent basis, Debye):
    X=             -0.2219    Y=             -2.2743    Z=             -0.5590  Tot=              2.3525
 Quadrupole moment (field-independent basis, Debye-Ang):
   XX=            -73.6644   YY=            -93.4978   ZZ=            -87.0109
   XY=             -8.5733   XZ=              1.3602   YZ=             -6.6691

  Exact polarizability: 101.325  -0.422  96.906  -0.736  -0.191  83.513
 Approx polarizability: 136.499   4.437 129.914  -3.343  -0.757 123.909

                      1                      2                      3
                      A                      A                      A
 Frequencies --     40.5875                64.2024                76.5102
 Red. masses --      6.5143                 4.4949                 6.0672
 Frc consts  --      0.0063                 0.0109                 0.0209
 IR Inten    --      3.2034                 5.8972                 2.1003

                      4                      5                      6
                      A                      A                      A
 Frequencies --    106.2107               125.0788               133.5442
 Red. masses --      5.5910                 3.2145                 4.9471
 Frc consts  --      0.0372                 0.0296                 0.0520
 IR Inten    --      6.4959                 2.9463                 2.2733

                      7                      8                      9
                      A                      A                      A
 Frequencies --    164.7659               194.9762               224.5055
 Red. masses --      3.5596                 3.0647                 5.0366
 Frc consts  --      0.0569                 0.0686                 0.1496
 IR Inten    --      9.6077                10.1781                 4.7483

                     10                     11                     12
                      A                      A                      A
 Frequencies --    226.3651               240.8295               255.3398
 Red. masses --      5.0917                 3.4059                 4.3253
 Frc consts  --      0.1537                 0.1164                 0.1662
 IR Inten    --      6.3119                12.0044                13.3695

                     13                     14                     15
                      A                      A                      A
 Frequencies --    264.9199               275.1088               285.1249
 Red. masses --      1.6098                 5.7670                 1.6701
 Frc consts  --      0.0666                 0.2572                 0.0800
 IR Inten    --     73.1811                 5.3886                72.2446

                     16                     17                     18
                      A                      A                      A
 Frequencies --    299.7979               332.2018               344.7560
 Red. masses --      3.1616                 1.2141                 1.3759
 Frc consts  --      0.1674                 0.0789                 0.0964
 IR Inten    --     35.9404                76.4005               108.3244

                     19                     20                     21
                      A                      A                      A
 Frequencies --    360.0280               397.8794               418.3312
 Red. masses --      4.6234                 3.1875                 3.7195
 Frc consts  --      0.3531                 0.2973                 0.3835
 IR Inten    --     37.2780                 2.5308                29.4873

                     22                     23                     24
                      A                      A                      A
 Frequencies --    433.8818               443.1348               493.8806
 Red. masses --      1.0978                 6.0278                 3.3657
 Frc consts  --      0.1218                 0.6974                 0.4837
 IR Inten    --     81.0137                 6.7323                24.2507

                     25                     26                     27
                      A                      A                      A
 Frequencies --    501.4767               543.2817               562.1804
 Red. masses --      6.3954                 4.1155                 1.2032
 Frc consts  --      0.9476                 0.7157                 0.2240
 IR Inten    --      3.6759                 8.0920                53.1518

                     28                     29                     30
                      A                      A                      A
 Frequencies --    576.4204               629.9124               653.9197
 Red. masses --      4.7607                 2.8909                 1.1126
 Frc consts  --      0.9320                 0.6758                 0.2803
 IR Inten    --      5.3517                23.2321                91.1186

                     31                     32                     33
                      A                      A                      A
 Frequencies --    664.8009               731.0740               780.7095
 Red. masses --      1.1315                 1.0671                 1.1458
 Frc consts  --      0.2946                 0.3360                 0.4115
 IR Inten    --    296.0950                95.8536               288.9290

                     34                     35                     36
                      A                      A                      A
 Frequencies --    815.6262               863.3138               905.9863
 Red. masses --      3.1711                 3.6649                 2.2990
 Frc consts  --      1.2429                 1.6093                 1.1118
 IR Inten    --     39.1788                 7.5903                 2.7285

                     37                     38                     39
                      A                      A                      A
 Frequencies --    945.1509               959.5352               995.4747
 Red. masses --      3.1746                 1.1007                 3.4215
 Frc consts  --      1.6709                 0.5971                 1.9977
 IR Inten    --     62.8952               154.3303                89.3868

                     40                     41                     42
                      A                      A                      A
 Frequencies --   1035.6432              1045.0048              1061.7187
 Red. masses --      3.7785                 2.4872                 5.1939
 Frc consts  --      2.3878                 1.6003                 3.4496
 IR Inten    --    116.2896                60.4160                61.5600

                     43                     44                     45
                      A                      A                      A
 Frequencies --   1087.3524              1096.2627              1115.0868
 Red. masses --      5.8766                 3.7129                 3.2125
 Frc consts  --      4.0937                 2.6290                 2.3535
 IR Inten    --    124.9216                80.7212                19.3626

                     46                     47                     48
                      A                      A                      A
 Frequencies --   1119.7046              1133.9149              1196.9901
 Red. masses --      2.1191                 3.5772                 2.0429
 Frc consts  --      1.5654                 2.7099                 1.7245
 IR Inten    --      6.6594                16.6387               126.8228

                     49                     50                     51
                      A                      A                      A
 Frequencies --   1233.2388              1240.1934              1251.0561
 Red. masses --      1.2855                 1.4742                 1.4366
 Frc consts  --      1.1519                 1.3359                 1.3248
 IR Inten    --     19.8910                57.9877                51.7417

                     52                     53                     54
                      A                      A                      A
 Frequencies --   1273.5169              1309.9859              1337.9802
 Red. masses --      1.1986                 1.2138                 1.2982
 Frc consts  --      1.1454                 1.2272                 1.3693
 IR Inten    --     68.0686                 9.1282                 1.9192

                     55                     56                     57
                      A                      A                      A
 Frequencies --   1353.2731              1357.3745              1378.4560
 Red. masses --      1.2327                 1.3070                 1.2830
 Frc consts  --      1.3301                 1.4188                 1.4364
 IR Inten    --      4.3614                11.6444                12.1932

                     58                     59                     60
                      A                      A                      A
 Frequencies --   1380.7748              1401.7291              1422.1680
 Red. masses --      1.3446                 1.3546                 1.3218
 Frc consts  --      1.5104                 1.5682                 1.5751
 IR Inten    --     15.1787                 6.7403                58.5592

                     61                     62                     63
                      A                      A                      A
 Frequencies --   1427.0773              1451.1700              1462.6664
 Red. masses --      1.3768                 1.2590                 1.4407
 Frc consts  --      1.6520                 1.5621                 1.8160
 IR Inten    --      4.6166                48.9767                15.5716

                     64                     65                     66
                      A                      A                      A
 Frequencies --   1492.3501              1532.0907              1534.0787
 Red. masses --      1.1941                 1.1512                 1.0862
 Frc consts  --      1.5669                 1.5921                 1.5061
 IR Inten    --     72.2650                96.7550                 5.0047

                     67                     68                     69
                      A                      A                      A
 Frequencies --   1675.9502              1773.3633              2994.4500
 Red. masses --      1.0854                 1.0747                 1.0842
 Frc consts  --      1.7962                 1.9913                 5.7277
 IR Inten    --     69.0874               125.7937                28.8442

                     70                     71                     72
                      A                      A                      A
 Frequencies --   3020.5518              3045.5633              3066.7680
 Red. masses --      1.0694                 1.0867                 1.0863
 Frc consts  --      5.7488                 5.9389                 6.0194
 IR Inten    --     46.3174                50.6344                33.0755

                     73                     74                     75
                      A                      A                      A
 Frequencies --   3070.1034              3077.1916              3104.9501
 Red. masses --      1.0859                 1.0884                 1.0956
 Frc consts  --      6.0305                 6.0723                 6.2231
 IR Inten    --     42.2202                30.2775                26.2154

                     76                     77                     78
                      A                      A                      A
 Frequencies --   3316.1359              3601.0389              3615.1826
 Red. masses --      1.0684                 1.0559                 1.0590
 Frc consts  --      6.9225                 8.0676                 8.1550
 IR Inten    --    522.5590               212.0274                48.9872

                     79                     80                     81
                      A                      A                      A
 Frequencies --   3626.5152              3641.0278              3702.1004
 Red. masses --      1.0658                 1.0583                 1.0763
 Frc consts  --      8.2585                 8.2659                 8.6908
 IR Inten    --    134.4187               236.2711               251.3197

                     82                     83                     84
                      A                      A                      A
 Frequencies --   3738.8626              3740.0021              3811.0955
 Red. masses --      1.0662                 1.0661                 1.0721
 Frc consts  --      8.7818                 8.7861                 9.1742
 IR Inten    --     26.1057                18.5310                89.0351

 - Thermochemistry -
 -------------------
 Temperature   298.150 Kelvin.  Pressure   1.00000 Atm.
 Atom     1 has atomic number  6 and mass  12.00000

 Molecular mass:   216.08452 amu.
 Principal axes and moments of inertia in atomic units:
                           1         2         3
     Eigenvalues --  2638.472462803.337313977.01681
           X            0.99774  -0.06711  -0.00355
           Y            0.06706   0.99768  -0.01186
           Z            0.00434   0.01159   0.99992
 This molecule is an asymmetric top.
 Rotational symmetry number  1.
 Warning -- assumption of classical behavior for rotation
           may cause significant error
 Rotational temperatures (Kelvin)      0.03283     0.03090     0.02178
 Rotational constants (GHZ):           0.68401     0.64378     0.45379
 Zero-point vibrational energy     656047.2 (Joules/Mol)
                                  156.79905 (Kcal/Mol)
 Warning -- explicit consideration of  28 degrees of freedom as
           vibrations may cause significant error
 Vibrational temperatures:     58.40    92.37   110.08   152.81   179.96
          (Kelvin)            192.14   237.06   280.53   323.01   325.69
                              346.50   367.38   381.16   395.82   410.23
                              431.34   477.96   496.03   518.00   572.46
                              601.88   624.26   637.57   710.58   721.51
                              781.66   808.85   829.34   906.30   940.84
                              956.50  1051.85  1123.27  1173.50  1242.11
                             1303.51  1359.86  1380.56  1432.26  1490.06
                             1503.53  1527.57  1564.46  1577.28  1604.36
                             1611.00  1631.45  1722.20  1774.35  1784.36
                             1799.99  1832.30  1884.78  1925.05  1947.06
                             1952.96  1983.29  1986.62  2016.77  2046.18
                             2053.24  2087.91  2104.45  2147.16  2204.33
                             2207.19  2411.32  2551.47  4308.34  4345.89
                             4381.88  4412.39  4417.19  4427.39  4467.33
                             4771.17  5181.09  5201.43  5217.74  5238.62
                             5326.49  5379.38  5381.02  5483.31

 Zero-point correction=                           0.249875 (Hartree/Particle)
 Thermal correction to Energy=                    0.266762
 Thermal correction to Enthalpy=                  0.267706
 Thermal correction to Gibbs Free Energy=         0.206871
 Sum of electronic and zero-point Energies=           -839.751294
 Sum of electronic and thermal Energies=              -839.734407
 Sum of electronic and thermal Enthalpies=            -839.733463
 Sum of electronic and thermal Free Energies=         -839.794298

                     E (Thermal)             CV                S
                      KCal/Mol        Cal/Mol-Kelvin    Cal/Mol-Kelvin
 Total                  167.395             63.567            128.038
 Electronic               0.000              0.000              0.000
 Translational            0.889              2.981             42.015
 Rotational               0.889              2.981             31.754
 Vibrational            165.618             57.605             54.270
 Vibration     1          0.594              1.981              5.230
 Vibration     2          0.597              1.971              4.324
 Vibration     3          0.599              1.965              3.978
 Vibration     4          0.605              1.944              3.337
 Vibration     5          0.610              1.928              3.020
 Vibration     6          0.613              1.920              2.894
 Vibration     7          0.623              1.886              2.494
 Vibration     8          0.636              1.847              2.180
 Vibration     9          0.649              1.804              1.922
 Vibration    10          0.650              1.801              1.908
 Vibration    11          0.658              1.778              1.797
 Vibration    12          0.666              1.754              1.693
 Vibration    13          0.671              1.737              1.629
 Vibration    14          0.677              1.719              1.564
 Vibration    15          0.683              1.701              1.503
 Vibration    16          0.692              1.674              1.418
 Vibration    17          0.714              1.611              1.249
 Vibration    18          0.723              1.586              1.190
 Vibration    19          0.735              1.555              1.122
 Vibration    20          0.764              1.475              0.970
 Vibration    21          0.781              1.430              0.898
 Vibration    22          0.795              1.396              0.846
 Vibration    23          0.803              1.376              0.817
 Vibration    24          0.850              1.264              0.674
 Vibration    25          0.857              1.247              0.654
 Vibration    26          0.898              1.154              0.558
 Vibration    27          0.918              1.113              0.519
 Vibration    28          0.933              1.082              0.492

 Normal termination of Gaussian 09 at Tue Jan 17 00:52:05 2017.
