 Gaussian 09, Revision E.01,
 Gaussian 09:  ES64L-G09RevE.01 30-Nov-2015

 -------------------------
 # b3lyp/6-31g(d) opt freq
 -------------------------

 ----------------------------------
 glo_1w_beta_ircf_boat6_B3LYP_631Gd
 ----------------------------------
 Symbolic Z-matrix:
 Charge =  0 Multiplicity = 1

 SCF Done:  E(RB3LYP) =  -839.964567975     A.U. after   14 cycles
 SCF Done:  E(RB3LYP) =  -839.963129387     A.U. after   14 cycles
 SCF Done:  E(RB3LYP) =  -839.967445261     A.U. after   11 cycles
 SCF Done:  E(RB3LYP) =  -839.971555616     A.U. after   13 cycles
 SCF Done:  E(RB3LYP) =  -839.977163896     A.U. after   13 cycles
 SCF Done:  E(RB3LYP) =  -839.979513499     A.U. after   12 cycles
 SCF Done:  E(RB3LYP) =  -839.980749902     A.U. after   12 cycles
 SCF Done:  E(RB3LYP) =  -839.981284026     A.U. after   12 cycles
 SCF Done:  E(RB3LYP) =  -839.981613288     A.U. after   11 cycles
 SCF Done:  E(RB3LYP) =  -839.981759629     A.U. after   11 cycles
 SCF Done:  E(RB3LYP) =  -839.981888901     A.U. after   10 cycles
 SCF Done:  E(RB3LYP) =  -839.981906056     A.U. after    9 cycles
 SCF Done:  E(RB3LYP) =  -839.981916487     A.U. after    8 cycles
 SCF Done:  E(RB3LYP) =  -839.981922506     A.U. after    8 cycles
 SCF Done:  E(RB3LYP) =  -839.981924050     A.U. after    8 cycles
 SCF Done:  E(RB3LYP) =  -839.981924905     A.U. after    7 cycles
 SCF Done:  E(RB3LYP) =  -839.981925317     A.U. after    8 cycles
 SCF Done:  E(RB3LYP) =  -839.981925650     A.U. after    7 cycles
 SCF Done:  E(RB3LYP) =  -839.981925718     A.U. after    7 cycles
 Optimization completed.
    -- Stationary point found.
 Normal termination of Gaussian 09 at Sun Jan 15 21:37:26 2017.

 --------------------------------------------------------------------
 #N Geom=AllCheck Guess=TCheck SCRF=Check GenChk RB3LYP/6-31G(d) Freq
 --------------------------------------------------------------------

 Structure from the checkpoint file:  "/scratch/10464865.yak.local/Gau-1628.chk"
 ----------------------------------
 glo_1w_beta_ircf_boat6_B3LYP_631Gd
 ----------------------------------
 Charge =  0 Multiplicity = 1

                         Standard orientation:
 ---------------------------------------------------------------------
 Center     Atomic      Atomic             Coordinates (Angstroms)
 Number     Number       Type             X           Y           Z
 ---------------------------------------------------------------------
      1          6           0        1.245033    0.476295   -0.543426
      2          6           0       -1.292657   -0.054287   -0.781631
      3          6           0       -0.196627    0.840123   -0.136398
      4          6           0       -0.950222   -1.529430   -1.115695
      5          1           0       -1.921028   -2.017101   -1.317739
      6          1           0       -1.583073    0.439677   -1.715937
      7          1           0        1.329620    0.386978   -1.629575
      8          1           0       -0.256721    0.688046    0.954605
      9          6           0       -0.376028   -2.248568    0.087849
     10          1           0        0.410870   -2.990652   -0.111998
     11          8           0        1.561831   -0.815126   -0.025784
     12          6           0        2.238462    1.534276   -0.068893
     13          1           0        1.938382    2.504544   -0.482401
     14          1           0        2.186126    1.610110    1.032595
     15          8           0        3.535644    1.144224   -0.499650
     16          1           0        4.147080    1.855876   -0.258752
     17          8           0       -0.871905   -2.100569    1.204706
     18          8           0       -0.067359   -1.696262   -2.205807
     19          1           0       -0.538662   -1.442177   -3.013835
     20          8           0       -2.476206   -0.068421    0.042683
     21          1           0       -2.249889   -0.655758    0.793043
     22          8           0       -0.442174    2.196152   -0.461031
     23          1           0       -1.237791    2.488680    0.041804
     24          8           0        1.255744   -1.065115    2.748353
     25          1           0        0.480040   -1.616663    2.525165
     26          1           0        0.897558   -0.338465    3.279831
     27          1           0        1.668268   -0.746458    0.951238
     28          8           0       -2.853121    2.545547    0.869450
     29          1           0       -3.466361    3.006220    0.276792
     30          1           0       -2.951820    1.593246    0.640973
 ---------------------------------------------------------------------

 SCF Done:  E(RB3LYP) =  -839.981925718     A.U. after    1 cycles

 The electronic state is 1-A.
 Alpha  occ. eigenvalues --  -19.17093 -19.17009 -19.16864 -19.15779 -19.14978
 Alpha  occ. eigenvalues --  -19.13848 -19.13264 -19.12671 -10.29906 -10.26122
 Alpha  occ. eigenvalues --  -10.25184 -10.23566 -10.22631 -10.21960  -1.06993
 Alpha  occ. eigenvalues --   -1.04539  -1.03856  -1.02143  -1.01262  -1.00908
 Alpha  occ. eigenvalues --   -0.99981  -0.99473  -0.77654  -0.74551  -0.69590
 Alpha  occ. eigenvalues --   -0.64076  -0.59977  -0.58311  -0.54635  -0.53740
 Alpha  occ. eigenvalues --   -0.53053  -0.52876  -0.50918  -0.50295  -0.48438
 Alpha  occ. eigenvalues --   -0.47039  -0.45855  -0.44961  -0.44584  -0.42623
 Alpha  occ. eigenvalues --   -0.40779  -0.40339  -0.39433  -0.39136  -0.38114
 Alpha  occ. eigenvalues --   -0.37541  -0.35568  -0.35278  -0.33742  -0.32232
 Alpha  occ. eigenvalues --   -0.31486  -0.30336  -0.29572  -0.29433  -0.27299
 Alpha  occ. eigenvalues --   -0.26647  -0.25632  -0.24650
 Alpha virt. eigenvalues --   -0.03687   0.04806   0.05469   0.06728   0.08324
 Alpha virt. eigenvalues --    0.09596   0.12029   0.12790   0.13551   0.14841
 Alpha virt. eigenvalues --    0.15564   0.16080   0.16744   0.18076   0.18787

 Mulliken charges:
               1
     1  C    0.109877
     2  C    0.083075
     3  C    0.128260
     4  C    0.045494
     5  H    0.160482
     6  H    0.145144
     7  H    0.156906
     8  H    0.094024
     9  C    0.287111
    10  H    0.170586
    11  O   -0.654633
    12  C   -0.048346
    13  H    0.154816
    14  H    0.101496
    15  O   -0.613186
    16  H    0.391490
    17  O   -0.485383
    18  O   -0.605656
    19  H    0.402663
    20  O   -0.666950
    21  H    0.419644
    22  O   -0.681448
    23  H    0.422674
    24  O   -0.799298
    25  H    0.429574
    26  H    0.400095
    27  H    0.437263
    28  O   -0.808419
    29  H    0.395367
    30  H    0.427277
 Sum of Mulliken charges =  -0.00000

 Dipole moment (field-independent basis, Debye):
    X=             -3.1637    Y=              0.7214    Z=             -0.6752  Tot=              3.3144
 Quadrupole moment (field-independent basis, Debye-Ang):
   XX=            -82.0554   YY=            -82.2459   ZZ=            -76.3478
   XY=              7.6997   XZ=              7.9556   YZ=              2.3200

  Exact polarizability: 102.588   1.792  97.859  -1.425   0.701  91.901
 Approx polarizability: 135.730  -0.856 130.588  -8.515  -1.434 138.211

                      1                      2                      3
                      A                      A                      A
 Frequencies --     37.5829                55.5243                68.8872
 Red. masses --      5.7059                 6.1583                 5.8703
 Frc consts  --      0.0047                 0.0112                 0.0164
 IR Inten    --      1.0962                 1.5328                 0.7707

                      4                      5                      6
                      A                      A                      A
 Frequencies --     81.0744               108.1428               124.1297
 Red. masses --      5.4732                 5.3015                 3.2857
 Frc consts  --      0.0212                 0.0365                 0.0298
 IR Inten    --      1.9679                 5.3763                 6.2890

                      7                      8                      9
                      A                      A                      A
 Frequencies --    144.3365               163.1993               170.5744
 Red. masses --      7.2488                 5.4278                 4.9932
 Frc consts  --      0.0890                 0.0852                 0.0856
 IR Inten    --      9.1009                 5.5841                 0.8853

                     10                     11                     12
                      A                      A                      A
 Frequencies --    182.6082               203.6226               223.0835
 Red. masses --      5.9780                 6.7979                 3.6572
 Frc consts  --      0.1174                 0.1661                 0.1072
 IR Inten    --      8.4581                11.0168                 5.3810

                     13                     14                     15
                      A                      A                      A
 Frequencies --    245.4778               254.4449               261.6767
 Red. masses --      2.5558                 1.2958                 1.4117
 Frc consts  --      0.0907                 0.0494                 0.0570
 IR Inten    --     73.2025               131.2375                45.0308

                     16                     17                     18
                      A                      A                      A
 Frequencies --    272.7116               282.7491               305.7954
 Red. masses --      2.1125                 1.5851                 1.6252
 Frc consts  --      0.0926                 0.0747                 0.0895
 IR Inten    --     46.0269                81.1571                87.5960

                     19                     20                     21
                      A                      A                      A
 Frequencies --    314.6637               335.7433               344.8741
 Red. masses --      2.5775                 2.7598                 3.5886
 Frc consts  --      0.1504                 0.1833                 0.2515
 IR Inten    --     38.3222                82.6201                14.7519

                     22                     23                     24
                      A                      A                      A
 Frequencies --    361.0198               385.0346               392.4595
 Red. masses --      1.5564                 2.1384                 1.3652
 Frc consts  --      0.1195                 0.1868                 0.1239
 IR Inten    --     12.9944                63.6511               111.4918

                     25                     26                     27
                      A                      A                      A
 Frequencies --    419.7477               460.2541               490.5819
 Red. masses --      4.2846                 5.5398                 4.0483
 Frc consts  --      0.4448                 0.6914                 0.5740
 IR Inten    --      8.7379                17.6357                23.2574

                     28                     29                     30
                      A                      A                      A
 Frequencies --    531.6532               578.0169               590.8282
 Red. masses --      3.0241                 1.7961                 1.8339
 Frc consts  --      0.5036                 0.3536                 0.3772
 IR Inten    --     22.7342               110.8596               174.9899

                     31                     32                     33
                      A                      A                      A
 Frequencies --    611.0534               655.8927               674.5450
 Red. masses --      3.2477                 2.5164                 1.1632
 Frc consts  --      0.7145                 0.6378                 0.3118
 IR Inten    --     14.7199                13.0355               162.4833

                     34                     35                     36
                      A                      A                      A
 Frequencies --    702.0153               828.3217               862.3556
 Red. masses --      1.1088                 1.0771                 1.1442
 Frc consts  --      0.3219                 0.4354                 0.5013
 IR Inten    --     35.0155               163.5696               173.7175

                     37                     38                     39
                      A                      A                      A
 Frequencies --    890.6426               903.8690               933.3725
 Red. masses --      2.3515                 2.6641                 1.9322
 Frc consts  --      1.0990                 1.2824                 0.9918
 IR Inten    --     23.2141                71.4776                16.9177

                     40                     41                     42
                      A                      A                      A
 Frequencies --   1017.7612              1034.3732              1075.5250
 Red. masses --      3.4317                 2.6797                 3.3682
 Frc consts  --      2.0944                 1.6892                 2.2955
 IR Inten    --     53.9678                27.7401                42.9548

                     43                     44                     45
                      A                      A                      A
 Frequencies --   1083.8815              1102.8282              1115.3110
 Red. masses --      4.0708                 2.7412                 3.7279
 Frc consts  --      2.8177                 1.9643                 2.7322
 IR Inten    --     66.1618               102.5919                31.6173

                     46                     47                     48
                      A                      A                      A
 Frequencies --   1126.5066              1139.4983              1146.5403
 Red. masses --      2.9257                 3.4325                 3.4733
 Frc consts  --      2.1875                 2.6260                 2.6901
 IR Inten    --     20.7303                29.4299                37.0934

                     49                     50                     51
                      A                      A                      A
 Frequencies --   1234.1878              1248.8893              1253.6946
 Red. masses --      1.1132                 1.1176                 1.1152
 Frc consts  --      0.9991                 1.0270                 1.0327
 IR Inten    --     10.2789                30.4788                20.2117

                     52                     53                     54
                      A                      A                      A
 Frequencies --   1275.6592              1277.6262              1303.5560
 Red. masses --      1.5071                 1.2635                 1.2149
 Frc consts  --      1.4449                 1.2151                 1.2164
 IR Inten    --     77.1798                52.9562                 3.5748

                     55                     56                     57
                      A                      A                      A
 Frequencies --   1344.6788              1361.9132              1381.9095
 Red. masses --      1.1842                 1.2529                 1.2216
 Frc consts  --      1.2616                 1.3692                 1.3744
 IR Inten    --     14.7589                 3.5387                38.7984

                     58                     59                     60
                      A                      A                      A
 Frequencies --   1398.6827              1414.0870              1453.2334
 Red. masses --      1.2845                 1.3362                 1.4973
 Frc consts  --      1.4806                 1.5743                 1.8631
 IR Inten    --      3.1335                13.3373                38.3483

                     61                     62                     63
                      A                      A                      A
 Frequencies --   1473.0486              1474.7334              1490.1534
 Red. masses --      1.2598                 1.3816                 1.2454
 Frc consts  --      1.6105                 1.7704                 1.6294
 IR Inten    --     61.3403                27.5782                47.3320

                     64                     65                     66
                      A                      A                      A
 Frequencies --   1518.3200              1547.6067              1719.2641
 Red. masses --      1.2775                 1.0888                 1.1308
 Frc consts  --      1.7351                 1.5365                 1.9694
 IR Inten    --     34.6631                 6.1456                86.4462

                     67                     68                     69
                      A                      A                      A
 Frequencies --   1729.0083              1736.7292              2965.0413
 Red. masses --      1.0755                 6.0861                 1.0715
 Frc consts  --      1.8944                10.8157                 5.5503
 IR Inten    --     51.5125               109.9057                43.7409

                     70                     71                     72
                      A                      A                      A
 Frequencies --   2967.5689              2981.8101              3067.9982
 Red. masses --      1.0808                 1.0818                 1.0902
 Frc consts  --      5.6080                 5.6673                 6.0462
 IR Inten    --     33.9691                52.3024                43.8052

                     73                     74                     75
                      A                      A                      A
 Frequencies --   3076.0404              3076.6787              3117.3168
 Red. masses --      1.0875                 1.0893                 1.0866
 Frc consts  --      6.0625                 6.0751                 6.2211
 IR Inten    --     17.6957                32.2772                33.4880

                     76                     77                     78
                      A                      A                      A
 Frequencies --   3443.8358              3485.4596              3529.7709
 Red. masses --      1.0662                 1.0680                 1.0601
 Frc consts  --      7.4501                 7.6447                 7.7820
 IR Inten    --    220.4527               280.2211               795.4181

                     79                     80                     81
                      A                      A                      A
 Frequencies --   3599.8004              3630.6852              3754.9346
 Red. masses --      1.0653                 1.0538                 1.0667
 Frc consts  --      8.1339                 8.1846                 8.8610
 IR Inten    --     99.3681               166.3806                25.5759

                     82                     83                     84
                      A                      A                      A
 Frequencies --   3757.6428              3796.2321              3810.8651
 Red. masses --      1.0665                 1.0696                 1.0741
 Frc consts  --      8.8722                 9.0822                 9.1906
 IR Inten    --     14.0103                64.1856                69.3260

 - Thermochemistry -
 -------------------
 Temperature   298.150 Kelvin.  Pressure   1.00000 Atm.
 Atom     1 has atomic number  6 and mass  12.00000

 Molecular mass:   216.08452 amu.
 Principal axes and moments of inertia in atomic units:
                           1         2         3
     Eigenvalues --  2967.580893539.502514324.42298
           X            0.99989  -0.00014   0.01488
           Y           -0.00001   0.99995   0.00974
           Z           -0.01489  -0.00974   0.99984
 This molecule is an asymmetric top.
 Rotational symmetry number  1.
 Warning -- assumption of classical behavior for rotation
           may cause significant error
 Rotational temperatures (Kelvin)      0.02919     0.02447     0.02003
 Rotational constants (GHZ):           0.60815     0.50989     0.41734
 Zero-point vibrational energy     645944.3 (Joules/Mol)
                                  154.38439 (Kcal/Mol)
 Warning -- explicit consideration of  31 degrees of freedom as
           vibrations may cause significant error
 Vibrational temperatures:     54.07    79.89    99.11   116.65   155.59
          (Kelvin)            178.59   207.67   234.81   245.42   262.73
                              292.97   320.97   353.19   366.09   376.49
                              392.37   406.81   439.97   452.73   483.06
                              496.20   519.43   553.98   564.66   603.92
                              662.20   705.84   764.93   831.64   850.07
                              879.17   943.68   970.52  1010.04  1191.77
                             1240.74  1281.43  1300.46  1342.91  1464.33
                             1488.23  1547.44  1559.46  1586.72  1604.68
                             1620.79  1639.48  1649.61  1775.72  1796.87
                             1803.78  1835.39  1838.22  1875.52  1934.69
                             1959.49  1988.26  2012.39  2034.55  2090.88
                             2119.39  2121.81  2144.00  2184.52  2226.66
                             2473.63  2487.65  2498.76  4266.03  4269.66
                             4290.15  4414.16  4425.73  4426.65  4485.12
                             4954.91  5014.79  5078.55  5179.30  5223.74
                             5402.51  5406.40  5461.92  5482.98

 Zero-point correction=                           0.246027 (Hartree/Particle)
 Thermal correction to Energy=                    0.264477
 Thermal correction to Enthalpy=                  0.265421
 Thermal correction to Gibbs Free Energy=         0.200751
 Sum of electronic and zero-point Energies=           -839.735899
 Sum of electronic and thermal Energies=              -839.717449
 Sum of electronic and thermal Enthalpies=            -839.716505
 Sum of electronic and thermal Free Energies=         -839.781175

                     E (Thermal)             CV                S
                      KCal/Mol        Cal/Mol-Kelvin    Cal/Mol-Kelvin
 Total                  165.962             66.952            136.109
 Electronic               0.000              0.000              0.000
 Translational            0.889              2.981             42.015
 Rotational               0.889              2.981             32.185
 Vibrational            164.184             60.990             61.909
 Vibration     1          0.594              1.982              5.383
 Vibration     2          0.596              1.975              4.610
 Vibration     3          0.598              1.969              4.185
 Vibration     4          0.600              1.962              3.865
 Vibration     5          0.606              1.943              3.302
 Vibration     6          0.610              1.929              3.035
 Vibration     7          0.616              1.909              2.746
 Vibration     8          0.623              1.888              2.512
 Vibration     9          0.626              1.879              2.429
 Vibration    10          0.630              1.863              2.302
 Vibration    11          0.639              1.835              2.100
 Vibration    12          0.649              1.806              1.934
 Vibration    13          0.660              1.770              1.763
 Vibration    14          0.665              1.755              1.700
 Vibration    15          0.669              1.743              1.651
 Vibration    16          0.676              1.724              1.579
 Vibration    17          0.682              1.706              1.517
 Vibration    18          0.696              1.663              1.385
 Vibration    19          0.702              1.646              1.338
 Vibration    20          0.717              1.604              1.232
 Vibration    21          0.723              1.586              1.190
 Vibration    22          0.735              1.553              1.118
 Vibration    23          0.754              1.502              1.019
 Vibration    24          0.760              1.486              0.991
 Vibration    25          0.782              1.427              0.893
 Vibration    26          0.818              1.338              0.765
 Vibration    27          0.846              1.271              0.682
 Vibration    28          0.887              1.180              0.584
 Vibration    29          0.935              1.079              0.489
 Vibration    30          0.948              1.051              0.466
 Vibration    31          0.970              1.008              0.431

 Normal termination of Gaussian 09 at Sun Jan 15 22:09:03 2017.
