 Gaussian 09, Revision E.01,
 Gaussian 09:  ES64L-G09RevE.01 30-Nov-2015

 -------------------------
 # b3lyp/6-31g(d) opt freq
 -------------------------

 ----------------------------------
 glo_2w_beta_ircf_boat6_B3LYP_631Gd
 ----------------------------------
 Symbolic Z-matrix:
 Charge =  0 Multiplicity = 1

 SCF Done:  E(RB3LYP) =  -839.984558252     A.U. after   14 cycles
 SCF Done:  E(RB3LYP) =  -839.988435823     A.U. after   12 cycles
 SCF Done:  E(RB3LYP) =  -839.992369684     A.U. after   12 cycles
 SCF Done:  E(RB3LYP) =  -839.994292034     A.U. after   12 cycles
 SCF Done:  E(RB3LYP) =  -839.995610932     A.U. after   11 cycles
 SCF Done:  E(RB3LYP) =  -839.995529463     A.U. after   12 cycles
 SCF Done:  E(RB3LYP) =  -839.996098357     A.U. after    9 cycles
 SCF Done:  E(RB3LYP) =  -839.996492501     A.U. after   11 cycles
 SCF Done:  E(RB3LYP) =  -839.996637565     A.U. after   11 cycles
 SCF Done:  E(RB3LYP) =  -839.996679180     A.U. after   10 cycles
 SCF Done:  E(RB3LYP) =  -839.996707089     A.U. after   10 cycles
 SCF Done:  E(RB3LYP) =  -839.996720255     A.U. after    8 cycles
 SCF Done:  E(RB3LYP) =  -839.996727714     A.U. after    8 cycles
 SCF Done:  E(RB3LYP) =  -839.996732271     A.U. after    8 cycles
 SCF Done:  E(RB3LYP) =  -839.996734613     A.U. after    7 cycles
 SCF Done:  E(RB3LYP) =  -839.996735646     A.U. after    7 cycles
 SCF Done:  E(RB3LYP) =  -839.996736151     A.U. after    7 cycles
 Optimization completed.
    -- Stationary point found.
 Normal termination of Gaussian 09 at Sun Jan 15 21:31:56 2017.

 --------------------------------------------------------------------
 #N Geom=AllCheck Guess=TCheck SCRF=Check GenChk RB3LYP/6-31G(d) Freq
 --------------------------------------------------------------------

 Structure from the checkpoint file:  "/scratch/10464869.yak.local/Gau-32592.chk"
 ----------------------------------
 glo_2w_beta_ircf_boat6_B3LYP_631Gd
 ----------------------------------
 Charge =  0 Multiplicity = 1

                         Standard orientation:
 ---------------------------------------------------------------------
 Center     Atomic      Atomic             Coordinates (Angstroms)
 Number     Number       Type             X           Y           Z
 ---------------------------------------------------------------------
      1          6           0       -0.916787    0.940182   -0.258114
      2          6           0       -0.908187   -1.351995    0.875918
      3          6           0       -1.496956    0.082075    0.888049
      4          6           0       -0.678541   -1.769567   -0.587417
      5          1           0       -0.299218   -2.796690   -0.634024
      6          1           0       -1.649318   -2.023018    1.335693
      7          1           0       -1.582132    0.857148   -1.125835
      8          1           0       -1.278502    0.534019    1.865701
      9          6           0        0.445367   -0.867698   -1.153519
     10          1           0        0.377364   -0.793852   -2.247061
     11          8           0        0.389312    0.472116   -0.616692
     12          6           0       -0.816018    2.407438    0.122738
     13          1           0       -1.773497    2.694110    0.587842
     14          1           0       -0.021640    2.528820    0.875440
     15          8           0       -0.555791    3.158702   -1.050019
     16          1           0       -0.337833    4.064342   -0.784563
     17          8           0        1.644239   -1.453385   -0.731954
     18          8           0       -1.866081   -1.704966   -1.357434
     19          1           0       -2.527625   -1.175467   -0.875458
     20          8           0        0.290668   -1.419562    1.641311
     21          1           0        1.021970   -1.579999    1.005574
     22          8           0       -2.914777    0.048200    0.652108
     23          1           0       -3.340152   -0.374876    1.415712
     24          8           0        2.155890    0.972120    1.528469
     25          1           0        3.469528    0.439366    0.401300
     26          1           0        1.752031    0.280988    2.082398
     27          1           0        1.564980    0.957916    0.745798
     28          8           0        3.842141    0.068512   -0.436522
     29          1           0        2.426457   -0.846227   -0.852921
     30          1           0        4.539519   -0.543075   -0.155667
 ---------------------------------------------------------------------

 SCF Done:  E(RB3LYP) =  -839.996736151     A.U. after    1 cycles

 The electronic state is 1-A.
 Alpha  occ. eigenvalues --  -19.18480 -19.17146 -19.15648 -19.15325 -19.14981
 Alpha  occ. eigenvalues --  -19.14959 -19.14653 -19.14625 -10.29108 -10.25813
 Alpha  occ. eigenvalues --  -10.25314 -10.25231 -10.24497 -10.24229  -1.08148
 Alpha  occ. eigenvalues --   -1.05422  -1.02931  -1.02358  -1.01962  -1.01270
 Alpha  occ. eigenvalues --   -1.00858  -0.99522  -0.79169  -0.76778  -0.70378
 Alpha  occ. eigenvalues --   -0.65511  -0.63206  -0.58149  -0.56352  -0.55495
 Alpha  occ. eigenvalues --   -0.53578  -0.53103  -0.52058  -0.50721  -0.49873
 Alpha  occ. eigenvalues --   -0.48743  -0.46833  -0.45473  -0.43185  -0.42135
 Alpha  occ. eigenvalues --   -0.41502  -0.41266  -0.40087  -0.39802  -0.39082
 Alpha  occ. eigenvalues --   -0.37912  -0.36552  -0.35807  -0.33878  -0.33623
 Alpha  occ. eigenvalues --   -0.31578  -0.30800  -0.30132  -0.29694  -0.28182
 Alpha  occ. eigenvalues --   -0.27470  -0.27145  -0.25817
 Alpha virt. eigenvalues --    0.04119   0.05904   0.07007   0.08706   0.09086
 Alpha virt. eigenvalues --    0.09997   0.12266   0.13370   0.13737   0.14439
 Alpha virt. eigenvalues --    0.14731   0.16320   0.16734   0.18235   0.18897

 Mulliken charges:
               1
     1  C    0.144154
     2  C    0.108467
     3  C    0.040634
     4  C    0.066114
     5  H    0.162336
     6  H    0.127288
     7  H    0.171355
     8  H    0.146946
     9  C    0.345321
    10  H    0.153783
    11  O   -0.538079
    12  C   -0.062365
    13  H    0.137759
    14  H    0.141192
    15  O   -0.612354
    16  H    0.399068
    17  O   -0.680753
    18  O   -0.658809
    19  H    0.420659
    20  O   -0.674576
    21  H    0.423893
    22  O   -0.630630
    23  H    0.405854
    24  O   -0.836964
    25  H    0.426874
    26  H    0.403956
    27  H    0.438160
    28  O   -0.809487
    29  H    0.442926
    30  H    0.397278
 Sum of Mulliken charges =  -0.00000

 Dipole moment (field-independent basis, Debye):
    X=             -1.2001    Y=              0.3007    Z=              3.1682  Tot=              3.4012
 Quadrupole moment (field-independent basis, Debye-Ang):
   XX=            -76.2493   YY=            -80.0093   ZZ=            -88.0635
   XY=             -5.6163   XZ=             -6.0515   YZ=             -0.1279

  Exact polarizability: 103.364  -0.892  94.356  -1.956   1.477  85.599
 Approx polarizability: 138.573  -1.689 122.335   1.151   1.665 126.751

                      1                      2                      3
                      A                      A                      A
 Frequencies --     48.6100                65.9502                74.5838
 Red. masses --      5.8588                 5.4479                 6.0166
 Frc consts  --      0.0082                 0.0140                 0.0197
 IR Inten    --      1.0866                 5.0520                 1.6372

                      4                      5                      6
                      A                      A                      A
 Frequencies --    107.4832               122.6780               139.1203
 Red. masses --      6.9522                 5.0081                 6.2516
 Frc consts  --      0.0473                 0.0444                 0.0713
 IR Inten    --      3.5795                10.7314                 6.3025

                      7                      8                      9
                      A                      A                      A
 Frequencies --    170.7381               178.8962               206.6172
 Red. masses --      1.7483                 4.2860                 5.0997
 Frc consts  --      0.0300                 0.0808                 0.1283
 IR Inten    --     40.6167                21.9500                 4.6054

                     10                     11                     12
                      A                      A                      A
 Frequencies --    209.9740               235.3099               238.7993
 Red. masses --      2.2666                 3.9050                 5.2315
 Frc consts  --      0.0589                 0.1274                 0.1758
 IR Inten    --     87.6389                12.1189                 3.9900

                     13                     14                     15
                      A                      A                      A
 Frequencies --    243.8356               261.0398               289.3879
 Red. masses --      3.7774                 1.4682                 2.7187
 Frc consts  --      0.1323                 0.0589                 0.1341
 IR Inten    --     10.6030                91.4558                 0.8642

                     16                     17                     18
                      A                      A                      A
 Frequencies --    296.6325               328.4615               350.6645
 Red. masses --      4.2790                 1.7701                 1.1652
 Frc consts  --      0.2218                 0.1125                 0.0844
 IR Inten    --      3.7953                84.1700                66.3876

                     19                     20                     21
                      A                      A                      A
 Frequencies --    364.6203               382.6276               418.7138
 Red. masses --      3.2109                 2.3372                 1.5636
 Frc consts  --      0.2515                 0.2016                 0.1615
 IR Inten    --      0.6439                51.9383                 9.6529

                     22                     23                     24
                      A                      A                      A
 Frequencies --    445.5295               472.3369               488.2375
 Red. masses --      3.5967                 3.8816                 3.5164
 Frc consts  --      0.4206                 0.5102                 0.4939
 IR Inten    --      9.4268                 2.2834                 8.4251

                     25                     26                     27
                      A                      A                      A
 Frequencies --    519.5504               535.7700               563.3280
 Red. masses --      3.0933                 3.0541                 1.2489
 Frc consts  --      0.4920                 0.5165                 0.2335
 IR Inten    --      5.2449                94.6279               104.4995

                     28                     29                     30
                      A                      A                      A
 Frequencies --    564.3276               596.4320               622.2310
 Red. masses --      1.8029                 2.5924                 3.2107
 Frc consts  --      0.3383                 0.5434                 0.7324
 IR Inten    --     45.1408                76.2900                54.2781

                     31                     32                     33
                      A                      A                      A
 Frequencies --    685.5354               702.0082               817.3284
 Red. masses --      1.1355                 1.0838                 1.0785
 Frc consts  --      0.3144                 0.3147                 0.4245
 IR Inten    --     32.0055               229.6028               196.4306

                     34                     35                     36
                      A                      A                      A
 Frequencies --    833.8579               869.8398               902.7468
 Red. masses --      4.0045                 3.5590                 2.3416
 Frc consts  --      1.6405                 1.5865                 1.1243
 IR Inten    --     27.4530                10.3727                27.5872

                     37                     38                     39
                      A                      A                      A
 Frequencies --    957.3286              1004.5220              1034.3627
 Red. masses --      3.1390                 2.3163                 1.2749
 Frc consts  --      1.6950                 1.3771                 0.8036
 IR Inten    --     65.5682                77.1187               111.6678

                     40                     41                     42
                      A                      A                      A
 Frequencies --   1058.6526              1063.0969              1086.9809
 Red. masses --      2.5481                 6.0376                 3.6380
 Frc consts  --      1.6826                 4.0203                 2.5325
 IR Inten    --     28.3477                53.9005                85.4896

                     43                     44                     45
                      A                      A                      A
 Frequencies --   1092.3881              1109.5787              1122.7080
 Red. masses --      4.8403                 2.7688                 3.2618
 Frc consts  --      3.4031                 2.0085                 2.4224
 IR Inten    --     46.8400               132.3414                43.2749

                     46                     47                     48
                      A                      A                      A
 Frequencies --   1133.7575              1138.9552              1157.0755
 Red. masses --      3.7809                 3.0225                 2.5259
 Frc consts  --      2.8634                 2.3101                 1.9924
 IR Inten    --     54.0860                 1.3080                74.7812

                     49                     50                     51
                      A                      A                      A
 Frequencies --   1211.5590              1246.1812              1284.4279
 Red. masses --      1.1487                 1.5014                 1.2513
 Frc consts  --      0.9934                 1.3737                 1.2163
 IR Inten    --     52.2915                14.0872                87.0423

                     52                     53                     54
                      A                      A                      A
 Frequencies --   1292.3602              1310.2144              1315.7597
 Red. masses --      1.1306                 1.1649                 1.2028
 Frc consts  --      1.1126                 1.1782                 1.2269
 IR Inten    --     18.6587                19.1622                43.5928

                     55                     56                     57
                      A                      A                      A
 Frequencies --   1343.7581              1348.9358              1368.3552
 Red. masses --      1.2065                 1.2337                 1.2394
 Frc consts  --      1.2836                 1.3227                 1.3672
 IR Inten    --      8.0990                 3.7886                 9.9030

                     58                     59                     60
                      A                      A                      A
 Frequencies --   1374.6131              1393.6399              1422.8521
 Red. masses --      1.2425                 1.4001                 1.2926
 Frc consts  --      1.3833                 1.6021                 1.5418
 IR Inten    --      7.4137                25.8098                 9.3900

                     61                     62                     63
                      A                      A                      A
 Frequencies --   1453.3261              1478.1132              1482.6813
 Red. masses --      1.4358                 1.3229                 1.3514
 Frc consts  --      1.7867                 1.7030                 1.7503
 IR Inten    --     10.9123                54.6062                67.9317

                     64                     65                     66
                      A                      A                      A
 Frequencies --   1492.5310              1538.2085              1545.8152
 Red. masses --      1.5448                 1.1869                 1.0882
 Frc consts  --      2.0276                 1.6546                 1.5320
 IR Inten    --      3.0273                80.3447                12.5076

                     67                     68                     69
                      A                      A                      A
 Frequencies --   1725.8375              1768.3949              2994.9136
 Red. masses --      1.0802                 1.0694                 1.0578
 Frc consts  --      1.8955                 1.9703                 5.5900
 IR Inten    --    217.5384                45.9698                36.9016

                     70                     71                     72
                      A                      A                      A
 Frequencies --   3015.1438              3034.3297              3036.0989
 Red. masses --      1.0855                 1.1041                 1.0859
 Frc consts  --      5.8143                 5.9892                 5.8973
 IR Inten    --     74.1591                26.1847                34.2074

                     73                     74                     75
                      A                      A                      A
 Frequencies --   3052.9503              3073.7865              3078.7692
 Red. masses --      1.0870                 1.0858                 1.0868
 Frc consts  --      5.9693                 6.0441                 6.0695
 IR Inten    --     51.3183                30.0803                32.6239

                     76                     77                     78
                      A                      A                      A
 Frequencies --   3257.5124              3436.6094              3516.8895
 Red. masses --      1.0704                 1.0607                 1.0677
 Frc consts  --      6.6919                 7.3809                 7.7804
 IR Inten    --    782.6322               653.8590               199.0204

                     79                     80                     81
                      A                      A                      A
 Frequencies --   3583.0806              3648.2450              3734.0417
 Red. masses --      1.0573                 1.0677                 1.0662
 Frc consts  --      7.9975                 8.3731                 8.7590
 IR Inten    --    344.6430               134.1974                24.3882

                     82                     83                     84
                      A                      A                      A
 Frequencies --   3738.4149              3763.7708              3796.6693
 Red. masses --      1.0687                 1.0665                 1.0683
 Frc consts  --      8.8000                 8.9017                 9.0732
 IR Inten    --     59.0025                21.5095                51.8995

 - Thermochemistry -
 -------------------
 Temperature   298.150 Kelvin.  Pressure   1.00000 Atm.
 Atom     1 has atomic number  6 and mass  12.00000

 Molecular mass:   216.08452 amu.
 Principal axes and moments of inertia in atomic units:
                           1         2         3
     Eigenvalues --  2518.314373233.851144215.12491
           X            0.99990  -0.01344  -0.00480
           Y            0.01348   0.99986   0.00986
           Z            0.00466  -0.00993   0.99994
 This molecule is an asymmetric top.
 Rotational symmetry number  1.
 Warning -- assumption of classical behavior for rotation
           may cause significant error
 Rotational temperatures (Kelvin)      0.03439     0.02678     0.02055
 Rotational constants (GHZ):           0.71665     0.55808     0.42816
 Zero-point vibrational energy     654788.0 (Joules/Mol)
                                  156.49808 (Kcal/Mol)
 Warning -- explicit consideration of  29 degrees of freedom as
           vibrations may cause significant error
 Vibrational temperatures:     69.94    94.89   107.31   154.64   176.51
          (Kelvin)            200.16   245.65   257.39   297.28   302.11
                              338.56   343.58   350.82   375.58   416.36
                              426.79   472.58   504.53   524.61   550.52
                              602.43   641.02   679.59   702.46   747.52
                              770.85   810.50   811.94   858.13   895.25
                              986.33  1010.03  1175.95  1199.73  1251.50
                             1298.85  1377.38  1445.28  1488.22  1523.16
                             1529.56  1563.92  1571.70  1596.43  1615.32
                             1631.22  1638.70  1664.77  1743.16  1792.97
                             1848.00  1859.42  1885.10  1893.08  1933.37
                             1940.82  1968.76  1977.76  2005.13  2047.16
                             2091.01  2126.67  2133.25  2147.42  2213.14
                             2224.08  2483.09  2544.32  4309.01  4338.11
                             4365.72  4368.26  4392.51  4422.49  4429.66
                             4686.83  4944.51  5060.01  5155.25  5249.00
                             5372.45  5378.74  5415.22  5462.55

 Zero-point correction=                           0.249396 (Hartree/Particle)
 Thermal correction to Energy=                    0.266373
 Thermal correction to Enthalpy=                  0.267318
 Thermal correction to Gibbs Free Energy=         0.206288
 Sum of electronic and zero-point Energies=           -839.747341
 Sum of electronic and thermal Energies=              -839.730363
 Sum of electronic and thermal Enthalpies=            -839.729419
 Sum of electronic and thermal Free Energies=         -839.790448

                     E (Thermal)             CV                S
                      KCal/Mol        Cal/Mol-Kelvin    Cal/Mol-Kelvin
 Total                  167.152             63.512            128.448
 Electronic               0.000              0.000              0.000
 Translational            0.889              2.981             42.015
 Rotational               0.889              2.981             31.907
 Vibrational            165.374             57.550             54.526
 Vibration     1          0.595              1.978              4.873
 Vibration     2          0.597              1.971              4.271
 Vibration     3          0.599              1.966              4.029
 Vibration     4          0.606              1.943              3.314
 Vibration     5          0.610              1.930              3.058
 Vibration     6          0.615              1.914              2.816
 Vibration     7          0.626              1.879              2.427
 Vibration     8          0.629              1.868              2.340
 Vibration     9          0.641              1.830              2.073
 Vibration    10          0.642              1.826              2.044
 Vibration    11          0.655              1.787              1.838
 Vibration    12          0.657              1.781              1.812
 Vibration    13          0.659              1.773              1.775
 Vibration    14          0.669              1.744              1.655
 Vibration    15          0.686              1.693              1.478
 Vibration    16          0.690              1.680              1.436
 Vibration    17          0.712              1.619              1.268
 Vibration    18          0.728              1.574              1.163
 Vibration    19          0.738              1.545              1.102
 Vibration    20          0.752              1.507              1.029
 Vibration    21          0.782              1.430              0.896
 Vibration    22          0.805              1.371              0.809
 Vibration    23          0.829              1.311              0.731
 Vibration    24          0.844              1.276              0.688
 Vibration    25          0.875              1.207              0.611
 Vibration    26          0.891              1.171              0.574
 Vibration    27          0.919              1.111              0.517
 Vibration    28          0.920              1.108              0.515
 Vibration    29          0.954              1.039              0.456

 Normal termination of Gaussian 09 at Sun Jan 15 22:06:09 2017.
