 Gaussian 09, Revision D.01,
 Gaussian 09:  ES64L-G09RevD.01 24-Apr-2013

 ------------------------------------------------------
 # opt=(modredundant,MaxCycle=1000) freq B3LYP/6-31G(d)
 ------------------------------------------------------

 ------------------------
 boat3_Beta_B3LYP_6-31G_d
 ------------------------
 Symbolic Z-matrix:
 Charge =  0 Multiplicity = 1

 SCF Done:  E(RB3LYP) =  -839.908784964     A.U. after   14 cycles
 SCF Done:  E(RB3LYP) =  -839.934678338     A.U. after   11 cycles
 SCF Done:  E(RB3LYP) =  -839.948931377     A.U. after   11 cycles
 SCF Done:  E(RB3LYP) =  -839.958147396     A.U. after   11 cycles
 SCF Done:  E(RB3LYP) =  -839.963428995     A.U. after   11 cycles
 SCF Done:  E(RB3LYP) =  -839.966923212     A.U. after   12 cycles
 SCF Done:  E(RB3LYP) =  -839.970120059     A.U. after   11 cycles
 SCF Done:  E(RB3LYP) =  -839.972885121     A.U. after   12 cycles
 SCF Done:  E(RB3LYP) =  -839.974496536     A.U. after   11 cycles
 SCF Done:  E(RB3LYP) =  -839.976708006     A.U. after   11 cycles
 SCF Done:  E(RB3LYP) =  -839.980172040     A.U. after    9 cycles
 SCF Done:  E(RB3LYP) =  -839.980185663     A.U. after    9 cycles
 SCF Done:  E(RB3LYP) =  -839.980193014     A.U. after    9 cycles
 SCF Done:  E(RB3LYP) =  -839.980198305     A.U. after    8 cycles
 SCF Done:  E(RB3LYP) =  -839.980201115     A.U. after    7 cycles
 SCF Done:  E(RB3LYP) =  -839.980202525     A.U. after    7 cycles
 SCF Done:  E(RB3LYP) =  -839.980203363     A.U. after    7 cycles
 SCF Done:  E(RB3LYP) =  -839.980203909     A.U. after    7 cycles
 SCF Done:  E(RB3LYP) =  -839.980204212     A.U. after    7 cycles
 Optimization completed.
    -- Stationary point found.
 Normal termination of Gaussian 09 at Wed Jan 25 21:36:10 2017.

 --------------------------------------------------------------------
 #N Geom=AllCheck Guess=TCheck SCRF=Check GenChk RB3LYP/6-31G(d) Freq
 --------------------------------------------------------------------

 Structure from the checkpoint file:  "/home/iawad/Gau-4209.chk"
 ------------------------
 boat3_Beta_B3LYP_6-31G_d
 ------------------------
 Charge =  0 Multiplicity = 1

                         Standard orientation:
 ---------------------------------------------------------------------
 Center     Atomic      Atomic             Coordinates (Angstroms)
 Number     Number       Type             X           Y           Z
 ---------------------------------------------------------------------
      1          6           0       -0.109405    1.513764   -0.833370
      2          6           0       -0.807156   -0.860334   -0.008707
      3          8           0        1.591113   -0.173094   -0.250039
      4          6           0        0.648015   -1.278124   -0.236132
      5          6           0        1.146108    1.160457   -0.025026
      6          6           0       -1.183404    0.401451   -0.801724
      7          1           0        0.736373   -1.742156   -1.228264
      8          1           0       -1.349198    0.086806   -1.838290
      9          1           0       -0.925006   -0.657440    1.065950
     10          1           0        1.970002    1.789549   -0.395720
     11          1           0       -0.533775    2.424602   -0.387286
     12          6           0        0.999477    1.475985    1.478639
     13          1           0        1.840816    1.016342    2.014594
     14          1           0        0.077942    1.055254    1.888398
     15          8           0        0.993707   -2.155053    0.779876
     16          1           0        1.901619   -2.473192    0.582339
     17          8           0        0.914369    2.879438    1.705671
     18          1           0        1.802191    3.252874    1.592711
     19          8           0       -1.600019   -1.954468   -0.407160
     20          1           0       -2.457984   -1.895807    0.069937
     21          8           0       -2.416154    0.895056   -0.236580
     22          1           0       -2.813350    1.506143   -0.876687
     23          8           0        0.187920    1.719126   -2.216980
     24          1           0        0.829714    2.443806   -2.282224
     25          8           0        3.641247   -2.077769   -0.108372
     26          1           0        3.773468   -2.372148   -1.022421
     27          1           0        3.257897   -1.182040   -0.193659
     28          8           0       -3.922866   -1.170907    0.882283
     29          1           0       -3.796660   -1.115720    1.841585
     30          1           0       -3.590400   -0.314693    0.537353
 ---------------------------------------------------------------------

 SCF Done:  E(RB3LYP) =  -839.980204212     A.U. after    1 cycles

 The electronic state is 1-A.
 Alpha  occ. eigenvalues --  -19.17872 -19.16424 -19.16212 -19.15951 -19.15121
 Alpha  occ. eigenvalues --  -19.14685 -19.13154 -19.12046 -10.28215 -10.25332
 Alpha  occ. eigenvalues --  -10.24809 -10.24686 -10.24140 -10.23704  -1.06641
 Alpha  occ. eigenvalues --   -1.04791  -1.03356  -1.02968  -1.00866  -1.00775
 Alpha  occ. eigenvalues --   -0.99921  -0.99001  -0.78710  -0.76403  -0.69605
 Alpha  occ. eigenvalues --   -0.64817  -0.64011  -0.56517  -0.55931  -0.53953
 Alpha  occ. eigenvalues --   -0.53190  -0.53022  -0.51672  -0.50796  -0.49681
 Alpha  occ. eigenvalues --   -0.48655  -0.46185  -0.45216  -0.43876  -0.42448
 Alpha  occ. eigenvalues --   -0.42111  -0.39791  -0.39163  -0.38894  -0.37435
 Alpha  occ. eigenvalues --   -0.36217  -0.35412  -0.34918  -0.33997  -0.32541
 Alpha  occ. eigenvalues --   -0.30686  -0.30294  -0.29950  -0.29382  -0.28287
 Alpha  occ. eigenvalues --   -0.27518  -0.25741  -0.25042
 Alpha virt. eigenvalues --    0.05010   0.05051   0.05833   0.06528   0.07456
 Alpha virt. eigenvalues --    0.09469   0.10643   0.12062   0.13337   0.14595
 Alpha virt. eigenvalues --    0.15752   0.16330   0.16575   0.17670   0.19018

 Mulliken charges:
               1
     1  C    0.100044
     2  C    0.066866
     3  O   -0.545094
     4  C    0.350326
     5  C    0.114048
     6  C    0.107090
     7  H    0.132030
     8  H    0.171594
     9  H    0.130117
    10  H    0.108014
    11  H    0.148565
    12  C   -0.079391
    13  H    0.150846
    14  H    0.164972
    15  O   -0.632101
    16  H    0.422375
    17  O   -0.611035
    18  H    0.392639
    19  O   -0.663886
    20  H    0.429675
    21  O   -0.656494
    22  H    0.411750
    23  O   -0.640432
    24  H    0.390970
    25  O   -0.796958
    26  H    0.395860
    27  H    0.419194
    28  O   -0.804125
    29  H    0.396072
    30  H    0.426471
 Sum of Mulliken charges =   0.00000

 Dipole moment (field-independent basis, Debye):
    X=              1.8167    Y=              4.9279    Z=             -1.1449  Tot=              5.3754
 Quadrupole moment (field-independent basis, Debye-Ang):
   XX=            -80.5927   YY=            -85.1514   ZZ=            -81.5924
   XY=             -0.0665   XZ=             -7.9056   YZ=             -1.1673

  Exact polarizability: 100.537   2.047  99.034  -2.683  -1.588  84.946
 Approx polarizability: 128.474   2.777 132.503  -5.866  -1.694 122.118

 ******    1 imaginary frequencies (negative Signs) ******

                      1                      2                      3
                      A                      A                      A
 Frequencies --    -63.0450                37.1185                43.0860
 Red. masses --      5.2638                 5.6851                 5.9430
 Frc consts  --      0.0123                 0.0046                 0.0065
 IR Inten    --      0.9415                 3.5082                 1.3874

                      4                      5                      6
                      A                      A                      A
 Frequencies --     55.9872                81.9851                84.1140
 Red. masses --      5.5483                 5.5429                 3.4334
 Frc consts  --      0.0102                 0.0220                 0.0143
 IR Inten    --      1.9979                 4.2969                 4.6892

                      7                      8                      9
                      A                      A                      A
 Frequencies --    130.1288               163.0639               181.5867
 Red. masses --      4.8755                 4.1418                 6.2721
 Frc consts  --      0.0486                 0.0649                 0.1219
 IR Inten    --      7.5459                 1.2255                 6.5859

                     10                     11                     12
                      A                      A                      A
 Frequencies --    192.9850               208.3951               238.4955
 Red. masses --      5.6005                 6.9735                 4.0362
 Frc consts  --      0.1229                 0.1784                 0.1353
 IR Inten    --      4.1777                28.0718                 7.5246

                     13                     14                     15
                      A                      A                      A
 Frequencies --    266.8668               277.9689               279.6267
 Red. masses --      1.1026                 1.7500                 1.5049
 Frc consts  --      0.0463                 0.0797                 0.0693
 IR Inten    --     41.2149                 7.3266                28.4312

                     16                     17                     18
                      A                      A                      A
 Frequencies --    297.9022               302.6350               308.4146
 Red. masses --      1.1161                 1.1856                 1.2002
 Frc consts  --      0.0584                 0.0640                 0.0673
 IR Inten    --    211.2629                28.7119               111.1391

                     19                     20                     21
                      A                      A                      A
 Frequencies --    316.3222               327.0768               348.3170
 Red. masses --      1.2807                 4.3592                 3.7306
 Frc consts  --      0.0755                 0.2748                 0.2667
 IR Inten    --     95.6716                 4.2786                19.8284

                     22                     23                     24
                      A                      A                      A
 Frequencies --    381.2514               395.3684               417.9397
 Red. masses --      1.5797                 3.4871                 3.9015
 Frc consts  --      0.1353                 0.3212                 0.4015
 IR Inten    --     62.5847                20.7545                16.8429

                     25                     26                     27
                      A                      A                      A
 Frequencies --    454.2385               479.7864               518.1433
 Red. masses --      4.5614                 5.4694                 3.7293
 Frc consts  --      0.5545                 0.7418                 0.5899
 IR Inten    --      4.6741                11.6913                18.0405

                     28                     29                     30
                      A                      A                      A
 Frequencies --    541.6383               569.4451               602.0579
 Red. masses --      4.3878                 5.3811                 3.6150
 Frc consts  --      0.7584                 1.0281                 0.7720
 IR Inten    --     11.3332                28.6978                 3.7246

                     31                     32                     33
                      A                      A                      A
 Frequencies --    659.9330               684.8818               780.3612
 Red. masses --      1.0917                 1.1098                 3.5936
 Frc consts  --      0.2801                 0.3067                 1.2893
 IR Inten    --    442.6996               185.5038                50.3892

                     34                     35                     36
                      A                      A                      A
 Frequencies --    824.8834               858.4031               862.3933
 Red. masses --      1.1678                 1.6198                 1.4267
 Frc consts  --      0.4682                 0.7032                 0.6252
 IR Inten    --    128.2716                39.1548                76.1335

                     37                     38                     39
                      A                      A                      A
 Frequencies --    929.9780               977.6774              1024.1344
 Red. masses --      3.8429                 2.7113                 2.6714
 Frc consts  --      1.9582                 1.5269                 1.6508
 IR Inten    --    131.3696                41.7238                64.3899

                     40                     41                     42
                      A                      A                      A
 Frequencies --   1033.9948              1056.5091              1069.2789
 Red. masses --      4.3070                 4.0068                 5.9558
 Frc consts  --      2.7131                 2.6351                 4.0121
 IR Inten    --     54.4632                42.9558               248.0065

                     43                     44                     45
                      A                      A                      A
 Frequencies --   1090.0888              1092.7981              1103.6203
 Red. masses --      2.7598                 2.9437                 2.5894
 Frc consts  --      1.9322                 2.0712                 1.8582
 IR Inten    --     30.7393                 3.1315                47.8255

                     46                     47                     48
                      A                      A                      A
 Frequencies --   1124.5824              1132.7406              1164.9932
 Red. masses --      2.5192                 4.4425                 4.3364
 Frc consts  --      1.8771                 3.3585                 3.4676
 IR Inten    --    165.6445                22.8100                68.4241

                     49                     50                     51
                      A                      A                      A
 Frequencies --   1190.1388              1227.9017              1249.7488
 Red. masses --      1.3026                 1.1890                 1.1203
 Frc consts  --      1.0871                 1.0562                 1.0310
 IR Inten    --     21.0107                36.9793                57.0665

                     52                     53                     54
                      A                      A                      A
 Frequencies --   1287.7234              1322.3562              1343.5235
 Red. masses --      1.1480                 1.4152                 1.1635
 Frc consts  --      1.1216                 1.4581                 1.2374
 IR Inten    --      9.5885                31.4263                14.1220

                     55                     56                     57
                      A                      A                      A
 Frequencies --   1355.7353              1366.4018              1382.2950
 Red. masses --      1.3001                 1.3054                 1.2124
 Frc consts  --      1.4079                 1.4360                 1.3649
 IR Inten    --     10.8837                10.4228                93.1078

                     58                     59                     60
                      A                      A                      A
 Frequencies --   1388.6176              1394.5496              1409.7602
 Red. masses --      1.3059                 1.2219                 1.2502
 Frc consts  --      1.4836                 1.4001                 1.4640
 IR Inten    --     14.1282                19.5542                 7.5408

                     61                     62                     63
                      A                      A                      A
 Frequencies --   1428.1446              1440.2353              1457.4593
 Red. masses --      1.2828                 1.4719                 1.4417
 Frc consts  --      1.5416                 1.7989                 1.8043
 IR Inten    --     10.5187                13.8013                 3.6403

                     64                     65                     66
                      A                      A                      A
 Frequencies --   1489.3714              1527.8905              1537.9380
 Red. masses --      1.2408                 1.0898                 1.5360
 Frc consts  --      1.6216                 1.4989                 2.1406
 IR Inten    --     35.0809                 2.0012                32.8137

                     67                     68                     69
                      A                      A                      A
 Frequencies --   1716.3781              1717.3895              3005.0344
 Red. masses --      1.0788                 1.0767                 1.0851
 Frc consts  --      1.8725                 1.8710                 5.7732
 IR Inten    --     57.3137                58.1762                59.2166

                     70                     71                     72
                      A                      A                      A
 Frequencies --   3022.1996              3032.2783              3039.0243
 Red. masses --      1.0818                 1.0846                 1.0852
 Frc consts  --      5.8216                 5.8756                 5.9049
 IR Inten    --      7.7491                26.9661                64.1419

                     73                     74                     75
                      A                      A                      A
 Frequencies --   3047.4803              3075.8533              3131.0445
 Red. masses --      1.0687                 1.0857                 1.0984
 Frc consts  --      5.8478                 6.0521                 6.3446
 IR Inten    --     42.8313                22.1006                25.7396

                     76                     77                     78
                      A                      A                      A
 Frequencies --   3490.6416              3536.4101              3581.4430
 Red. masses --      1.0662                 1.0653                 1.0571
 Frc consts  --      7.6545                 7.8493                 7.9891
 IR Inten    --    317.3915               208.1444               585.9555

                     79                     80                     81
                      A                      A                      A
 Frequencies --   3626.0260              3738.1565              3741.5194
 Red. masses --      1.0542                 1.0660                 1.0664
 Frc consts  --      8.1664                 8.7769                 8.7957
 IR Inten    --    337.6553                 8.9465                16.8654

                     82                     83                     84
                      A                      A                      A
 Frequencies --   3750.2103              3800.9779              3803.1395
 Red. masses --      1.0664                 1.0713                 1.0738
 Frc consts  --      8.8364                 9.1195                 9.1511
 IR Inten    --     34.2260                72.3121                76.6461

 - Thermochemistry -
 -------------------
 Temperature   298.150 Kelvin.  Pressure   1.00000 Atm.
 Atom     1 has atomic number  6 and mass  12.00000

 Molecular mass:   216.08452 amu.
 Principal axes and moments of inertia in atomic units:
                           1         2         3
     Eigenvalues --  2837.282293671.880604918.17636
           X            0.99996  -0.00180  -0.00879
           Y            0.00182   1.00000   0.00234
           Z            0.00878  -0.00236   0.99996
 This molecule is an asymmetric top.
 Rotational symmetry number  1.
 Warning -- assumption of classical behavior for rotation
           may cause significant error
 Rotational temperatures (Kelvin)      0.03053     0.02359     0.01761
 Rotational constants (GHZ):           0.63608     0.49150     0.36695
    1 imaginary frequencies ignored.
 Zero-point vibrational energy     649740.9 (Joules/Mol)
                                  155.29180 (Kcal/Mol)
 Warning -- explicit consideration of  29 degrees of freedom as
           vibrations may cause significant error
 Vibrational temperatures:     53.41    61.99    80.55   117.96   121.02
          (Kelvin)            187.23   234.61   261.26   277.66   299.83
                              343.14   383.96   399.93   402.32   428.61
                              435.42   443.74   455.12   470.59   501.15
                              548.54   568.85   601.32   653.55   690.30
                              745.49   779.30   819.30   866.23   949.50
                              985.39  1122.76  1186.82  1235.05  1240.79
                             1338.03  1406.66  1473.50  1487.69  1520.08
                             1538.45  1568.39  1572.29  1587.86  1618.02
                             1629.76  1676.16  1712.34  1766.67  1798.11
                             1852.74  1902.57  1933.03  1950.60  1965.95
                             1988.81  1997.91  2006.44  2028.33  2054.78
                             2072.17  2096.96  2142.87  2198.29  2212.75
                             2469.48  2470.94  4323.57  4348.27  4362.77
                             4372.47  4384.64  4425.46  4504.87  5022.25
                             5088.10  5152.89  5217.04  5378.37  5383.21
                             5395.71  5468.75  5471.86

 Zero-point correction=                           0.247473 (Hartree/Particle)
 Thermal correction to Energy=                    0.264865
 Thermal correction to Enthalpy=                  0.265809
 Thermal correction to Gibbs Free Energy=         0.202701
 Sum of electronic and zero-point Energies=           -839.732731
 Sum of electronic and thermal Energies=              -839.715339
 Sum of electronic and thermal Enthalpies=            -839.714395
 Sum of electronic and thermal Free Energies=         -839.777503

                     E (Thermal)             CV                S
                      KCal/Mol        Cal/Mol-Kelvin    Cal/Mol-Kelvin
 Total                  166.205             63.694            132.822
 Electronic               0.000              0.000              0.000
 Translational            0.889              2.981             42.015
 Rotational               0.889              2.981             32.305
 Vibrational            164.428             57.733             58.502
 Vibration     1          0.594              1.982              5.407
 Vibration     2          0.595              1.980              5.112
 Vibration     3          0.596              1.975              4.594
 Vibration     4          0.600              1.961              3.843
 Vibration     5          0.601              1.960              3.793
 Vibration     6          0.612              1.923              2.944
 Vibration     7          0.623              1.888              2.514
 Vibration     8          0.630              1.865              2.312
 Vibration     9          0.635              1.850              2.199
 Vibration    10          0.642              1.828              2.058
 Vibration    11          0.656              1.782              1.814
 Vibration    12          0.672              1.734              1.616
 Vibration    13          0.679              1.714              1.546
 Vibration    14          0.680              1.711              1.536
 Vibration    15          0.691              1.678              1.429
 Vibration    16          0.694              1.669              1.402
 Vibration    17          0.698              1.658              1.371
 Vibration    18          0.703              1.642              1.329
 Vibration    19          0.711              1.621              1.274
 Vibration    20          0.726              1.579              1.174
 Vibration    21          0.751              1.510              1.034
 Vibration    22          0.762              1.480              0.980
 Vibration    23          0.781              1.431              0.899
 Vibration    24          0.813              1.352              0.783
 Vibration    25          0.836              1.295              0.711
 Vibration    26          0.873              1.210              0.614
 Vibration    27          0.897              1.158              0.562
 Vibration    28          0.925              1.097              0.505
 Vibration    29          0.960              1.027              0.446

 Normal termination of Gaussian 09 at Wed Jan 25 21:42:37 2017.
