 Gaussian 09, Revision D.01,
 Gaussian 09:  ES64L-G09RevD.01 24-Apr-2013

 ------------------------------------------------------
 # opt=(modredundant,MaxCycle=1000) freq B3LYP/6-31G(d)
 ------------------------------------------------------

 ------------------------
 boat3_Beta_B3LYP_6-31G_d
 ------------------------
 Symbolic Z-matrix:
 Charge =  0 Multiplicity = 1

 SCF Done:  E(RB3LYP) =  -839.913939803     A.U. after   14 cycles
 SCF Done:  E(RB3LYP) =  -839.940390673     A.U. after   11 cycles
 SCF Done:  E(RB3LYP) =  -839.955380283     A.U. after   12 cycles
 SCF Done:  E(RB3LYP) =  -839.964510481     A.U. after   12 cycles
 SCF Done:  E(RB3LYP) =  -839.969752827     A.U. after   12 cycles
 SCF Done:  E(RB3LYP) =  -839.973314202     A.U. after   11 cycles
 SCF Done:  E(RB3LYP) =  -839.976767726     A.U. after   12 cycles
 SCF Done:  E(RB3LYP) =  -839.977881488     A.U. after   11 cycles
 SCF Done:  E(RB3LYP) =  -839.978708913     A.U. after   11 cycles
 SCF Done:  E(RB3LYP) =  -839.979452675     A.U. after   11 cycles
 SCF Done:  E(RB3LYP) =  -839.983469911     A.U. after   10 cycles
 SCF Done:  E(RB3LYP) =  -839.983474362     A.U. after    9 cycles
 SCF Done:  E(RB3LYP) =  -839.983476232     A.U. after    9 cycles
 SCF Done:  E(RB3LYP) =  -839.983478151     A.U. after    8 cycles
 SCF Done:  E(RB3LYP) =  -839.983478988     A.U. after    9 cycles
 SCF Done:  E(RB3LYP) =  -839.983478646     A.U. after    7 cycles
 SCF Done:  E(RB3LYP) =  -839.983479211     A.U. after    7 cycles
 SCF Done:  E(RB3LYP) =  -839.983479424     A.U. after    7 cycles
 SCF Done:  E(RB3LYP) =  -839.983479784     A.U. after    6 cycles
 Optimization completed.
    -- Stationary point found.
 Normal termination of Gaussian 09 at Wed Jan 25 21:45:08 2017.

 --------------------------------------------------------------------
 #N Geom=AllCheck Guess=TCheck SCRF=Check GenChk RB3LYP/6-31G(d) Freq
 --------------------------------------------------------------------

 Structure from the checkpoint file:  "/home/iawad/Gau-4459.chk"
 ------------------------
 boat3_Beta_B3LYP_6-31G_d
 ------------------------
 Charge =  0 Multiplicity = 1

                         Standard orientation:
 ---------------------------------------------------------------------
 Center     Atomic      Atomic             Coordinates (Angstroms)
 Number     Number       Type             X           Y           Z
 ---------------------------------------------------------------------
      1          6           0       -1.708642   -0.828304    0.521793
      2          6           0       -0.693498    1.354190   -0.415458
      3          8           0        0.608036   -0.179198    1.006511
      4          6           0        0.446973    1.196383    0.592249
      5          6           0       -0.222203   -1.212068    0.452605
      6          6           0       -1.959079    0.610252    0.013354
      7          1           0        0.199846    1.768045    1.492781
      8          1           0       -2.386860    1.165305    0.859462
      9          1           0       -0.358647    0.946207   -1.382347
     10          1           0       -0.059763   -2.057924    1.136111
     11          1           0       -2.259233   -1.532093   -0.119521
     12          6           0        0.196772   -1.714201   -0.947113
     13          1           0        1.288741   -1.699079   -1.039498
     14          1           0       -0.207392   -1.084212   -1.743319
     15          8           0        1.657887    1.713055    0.143613
     16          1           0        1.978034    1.191629   -0.632781
     17          8           0       -0.353514   -3.010350   -1.176684
     18          1           0        0.198684   -3.653748   -0.706315
     19          8           0       -0.962524    2.738198   -0.547860
     20          1           0       -1.740807    2.792320   -1.127652
     21          8           0       -2.829490    0.680528   -1.118599
     22          1           0       -3.725616    0.457863   -0.821958
     23          8           0       -2.210011   -0.858352    1.857785
     24          1           0       -2.073767   -1.751805    2.210527
     25          8           0        3.062118   -0.070680   -1.411294
     26          1           0        3.814938    0.266032   -1.920191
     27          1           0        3.415948   -0.256126   -0.503551
     28          8           0        3.484268   -0.175652    1.285362
     29          1           0        3.337867    0.788112    1.274592
     30          1           0        2.561923   -0.478429    1.408404
 ---------------------------------------------------------------------

 SCF Done:  E(RB3LYP) =  -839.983479784     A.U. after    1 cycles

 The electronic state is 1-A.
 Alpha  occ. eigenvalues --  -19.16781 -19.16434 -19.15676 -19.15653 -19.14873
 Alpha  occ. eigenvalues --  -19.14577 -19.14495 -19.14471 -10.28829 -10.25133
 Alpha  occ. eigenvalues --  -10.24540 -10.24487 -10.24061 -10.23511  -1.06952
 Alpha  occ. eigenvalues --   -1.04241  -1.03125  -1.02601  -1.01433  -1.01246
 Alpha  occ. eigenvalues --   -0.99995  -0.99484  -0.78691  -0.76614  -0.69439
 Alpha  occ. eigenvalues --   -0.65136  -0.63820  -0.57902  -0.56206  -0.53140
 Alpha  occ. eigenvalues --   -0.52709  -0.52119  -0.50958  -0.50396  -0.49625
 Alpha  occ. eigenvalues --   -0.48023  -0.46650  -0.45323  -0.43909  -0.43252
 Alpha  occ. eigenvalues --   -0.42400  -0.40581  -0.39213  -0.38493  -0.36585
 Alpha  occ. eigenvalues --   -0.36474  -0.35459  -0.35068  -0.33528  -0.33397
 Alpha  occ. eigenvalues --   -0.31027  -0.30188  -0.30067  -0.29437  -0.28592
 Alpha  occ. eigenvalues --   -0.27196  -0.26847  -0.25549
 Alpha virt. eigenvalues --    0.05581   0.05907   0.06240   0.06529   0.08633
 Alpha virt. eigenvalues --    0.09904   0.11108   0.11751   0.13040   0.13507
 Alpha virt. eigenvalues --    0.15072   0.16384   0.16892   0.17842   0.18904

 Mulliken charges:
               1
     1  C    0.107634
     2  C    0.075909
     3  O   -0.542825
     4  C    0.354733
     5  C    0.109609
     6  C    0.086894
     7  H    0.154167
     8  H    0.161132
     9  H    0.134866
    10  H    0.114900
    11  H    0.148693
    12  C   -0.103473
    13  H    0.174427
    14  H    0.167966
    15  O   -0.644547
    16  H    0.420498
    17  O   -0.615410
    18  H    0.393139
    19  O   -0.632661
    20  H    0.404616
    21  O   -0.644871
    22  H    0.403672
    23  O   -0.640386
    24  H    0.392693
    25  O   -0.815234
    26  H    0.396981
    27  H    0.417673
    28  O   -0.807043
    29  H    0.406525
    30  H    0.419723
 Sum of Mulliken charges =   0.00000

 Dipole moment (field-independent basis, Debye):
    X=             -1.1280    Y=             -2.3191    Z=             -0.1683  Tot=              2.5844
 Quadrupole moment (field-independent basis, Debye-Ang):
   XX=            -74.7739   YY=            -82.7688   ZZ=            -86.3121
   XY=             -0.2853   XZ=             -6.7217   YZ=             -7.2633

  Exact polarizability: 101.502  -0.215  97.855  -1.567  -2.498  84.624
 Approx polarizability: 128.362   1.337 133.183   0.277  -2.907 124.262

 ******    1 imaginary frequencies (negative Signs) ******

                      1                      2                      3
                      A                      A                      A
 Frequencies --    -45.1793                32.1020                62.7134
 Red. masses --      4.6856                 6.0664                 4.6943
 Frc consts  --      0.0056                 0.0037                 0.0109
 IR Inten    --      0.6071                 1.3590                10.6490

                      4                      5                      6
                      A                      A                      A
 Frequencies --     79.0191                85.8235               105.6206
 Red. masses --      6.1687                 3.2669                 5.2923
 Frc consts  --      0.0227                 0.0142                 0.0348
 IR Inten    --      0.9908                 4.7244                 5.6554

                      7                      8                      9
                      A                      A                      A
 Frequencies --    128.7392               156.5254               181.4126
 Red. masses --      6.3206                 4.0596                 3.5051
 Frc consts  --      0.0617                 0.0586                 0.0680
 IR Inten    --      0.4340                17.7504                 5.0759

                     10                     11                     12
                      A                      A                      A
 Frequencies --    215.5918               241.8136               253.9901
 Red. masses --      5.6059                 2.9576                 1.4981
 Frc consts  --      0.1535                 0.1019                 0.0569
 IR Inten    --      5.7071                 2.5655                59.4152

                     13                     14                     15
                      A                      A                      A
 Frequencies --    266.7942               270.6605               281.3406
 Red. masses --      4.6999                 5.3524                 3.1585
 Frc consts  --      0.1971                 0.2310                 0.1473
 IR Inten    --      8.5092                 7.4361                38.8720

                     16                     17                     18
                      A                      A                      A
 Frequencies --    300.6545               306.0390               318.3829
 Red. masses --      1.1472                 1.2696                 1.3409
 Frc consts  --      0.0611                 0.0701                 0.0801
 IR Inten    --     10.2551               121.5813               130.4546

                     19                     20                     21
                      A                      A                      A
 Frequencies --    324.7136               355.8357               384.6882
 Red. masses --      2.4224                 1.4380                 3.9886
 Frc consts  --      0.1505                 0.1073                 0.3478
 IR Inten    --     34.5879               107.1086                13.0525

                     22                     23                     24
                      A                      A                      A
 Frequencies --    393.2098               407.6563               437.9292
 Red. masses --      3.9075                 1.1557                 1.2152
 Frc consts  --      0.3560                 0.1132                 0.1373
 IR Inten    --      5.3732                33.2442               114.6029

                     25                     26                     27
                      A                      A                      A
 Frequencies --    456.2261               471.1495               511.8332
 Red. masses --      4.6067                 5.3676                 3.7711
 Frc consts  --      0.5649                 0.7020                 0.5821
 IR Inten    --      7.6069                 9.4720                 8.3126

                     28                     29                     30
                      A                      A                      A
 Frequencies --    543.5767               559.0033               575.1573
 Red. masses --      4.5687                 1.8851                 1.8862
 Frc consts  --      0.7954                 0.3471                 0.3676
 IR Inten    --     18.9451                69.8035               137.2750

                     31                     32                     33
                      A                      A                      A
 Frequencies --    606.9136               726.3727               775.5586
 Red. masses --      2.9124                 1.0816                 1.8769
 Frc consts  --      0.6321                 0.3362                 0.6652
 IR Inten    --     36.3527               324.3530                63.0711

                     34                     35                     36
                      A                      A                      A
 Frequencies --    789.0137               854.4413               924.6435
 Red. masses --      1.5867                 2.9319                 3.4141
 Frc consts  --      0.5820                 1.2611                 1.7198
 IR Inten    --    166.6018                35.3250                97.0859

                     37                     38                     39
                      A                      A                      A
 Frequencies --    977.4915              1018.6496              1024.3561
 Red. masses --      2.6264                 1.8763                 2.6782
 Frc consts  --      1.4786                 1.1471                 1.6558
 IR Inten    --     43.4367                84.5093                34.4223

                     40                     41                     42
                      A                      A                      A
 Frequencies --   1050.6250              1058.3664              1066.0877
 Red. masses --      1.9234                 3.6365                 4.2615
 Frc consts  --      1.2509                 2.4000                 2.8536
 IR Inten    --     55.0283                 2.0943               182.1532

                     43                     44                     45
                      A                      A                      A
 Frequencies --   1087.0286              1091.6311              1107.4097
 Red. masses --      3.4931                 2.4645                 2.7371
 Frc consts  --      2.4319                 1.7303                 1.9777
 IR Inten    --     72.0968                42.7380                 9.9583

                     46                     47                     48
                      A                      A                      A
 Frequencies --   1117.7977              1143.3909              1176.3720
 Red. masses --      2.9209                 4.5418                 3.7737
 Frc consts  --      2.1502                 3.4984                 3.0769
 IR Inten    --    146.9268                34.0008               121.0473

                     49                     50                     51
                      A                      A                      A
 Frequencies --   1196.9514              1223.9231              1245.0500
 Red. masses --      1.2494                 1.1871                 1.1354
 Frc consts  --      1.0546                 1.0477                 1.0370
 IR Inten    --     28.9040                23.9164                54.2851

                     52                     53                     54
                      A                      A                      A
 Frequencies --   1275.3063              1325.0602              1351.9454
 Red. masses --      1.1581                 1.4215                 1.1553
 Frc consts  --      1.1097                 1.4706                 1.2442
 IR Inten    --     34.8004                37.7500                 1.8773

                     55                     56                     57
                      A                      A                      A
 Frequencies --   1356.4721              1371.1169              1372.4901
 Red. masses --      1.2318                 1.2985                 1.3263
 Frc consts  --      1.3354                 1.4383                 1.4720
 IR Inten    --     15.0422                14.0984                24.2316

                     58                     59                     60
                      A                      A                      A
 Frequencies --   1388.7972              1395.3128              1420.2423
 Red. masses --      1.2413                 1.3055                 1.2740
 Frc consts  --      1.4107                 1.4975                 1.5141
 IR Inten    --     15.4473                14.7189                27.5902

                     61                     62                     63
                      A                      A                      A
 Frequencies --   1436.2783              1446.2038              1461.7358
 Red. masses --      1.3386                 1.4160                 1.4270
 Frc consts  --      1.6269                 1.7449                 1.7965
 IR Inten    --      8.2011                 3.7851                 1.8927

                     64                     65                     66
                      A                      A                      A
 Frequencies --   1474.3067              1499.7141              1530.3586
 Red. masses --      1.4870                 1.2313                 1.0874
 Frc consts  --      1.9043                 1.6316                 1.5004
 IR Inten    --     33.1098                72.1444                 3.9257

                     67                     68                     69
                      A                      A                      A
 Frequencies --   1741.3593              1766.0254              3004.6285
 Red. masses --      1.0699                 1.0825                 1.0815
 Frc consts  --      1.9114                 1.9891                 5.7525
 IR Inten    --     56.3199               226.6488                26.8375

                     70                     71                     72
                      A                      A                      A
 Frequencies --   3021.3783              3029.4681              3042.2176
 Red. masses --      1.0849                 1.0850                 1.0847
 Frc consts  --      5.8349                 5.8669                 5.9150
 IR Inten    --     42.1673                32.7872                24.8997

                     73                     74                     75
                      A                      A                      A
 Frequencies --   3078.6199              3091.2748              3139.1435
 Red. masses --      1.0623                 1.0873                 1.1048
 Frc consts  --      5.9320                 6.1219                 6.4143
 IR Inten    --     12.2444                54.7730                19.4076

                     76                     77                     78
                      A                      A                      A
 Frequencies --   3355.3110              3447.6732              3639.6375
 Red. masses --      1.0639                 1.0659                 1.0527
 Frc consts  --      7.0569                 7.4646                 8.2164
 IR Inten    --    260.0928               565.7423               217.8982

                     79                     80                     81
                      A                      A                      A
 Frequencies --   3723.7730              3723.8605              3739.6066
 Red. masses --      1.0677                 1.0696                 1.0660
 Frc consts  --      8.7232                 8.7391                 8.7833
 IR Inten    --     45.3328                52.1215                10.0771

                     82                     83                     84
                      A                      A                      A
 Frequencies --   3745.3014              3748.9916              3795.3062
 Red. masses --      1.0666                 1.0665                 1.0679
 Frc consts  --      8.8147                 8.8315                 9.0629
 IR Inten    --     17.6241                25.8108                41.9816

 - Thermochemistry -
 -------------------
 Temperature   298.150 Kelvin.  Pressure   1.00000 Atm.
 Atom     1 has atomic number  6 and mass  12.00000

 Molecular mass:   216.08452 amu.
 Principal axes and moments of inertia in atomic units:
                           1         2         3
     Eigenvalues --  2519.413413625.338474534.30526
           X            0.99997  -0.00317  -0.00736
           Y            0.00312   0.99997  -0.00686
           Z            0.00738   0.00683   0.99995
 This molecule is an asymmetric top.
 Rotational symmetry number  1.
 Warning -- assumption of classical behavior for rotation
           may cause significant error
 Rotational temperatures (Kelvin)      0.03438     0.02389     0.01910
 Rotational constants (GHZ):           0.71633     0.49781     0.39802
    1 imaginary frequencies ignored.
 Zero-point vibrational energy     651421.6 (Joules/Mol)
                                  155.69351 (Kcal/Mol)
 Warning -- explicit consideration of  30 degrees of freedom as
           vibrations may cause significant error
 Vibrational temperatures:     46.19    90.23   113.69   123.48   151.96
          (Kelvin)            185.23   225.20   261.01   310.19   347.92
                              365.43   383.86   389.42   404.79   432.57
                              440.32   458.08   467.19   511.97   553.48
                              565.74   586.53   630.08   656.41   677.88
                              736.41   782.08   804.28   827.52   873.21
                             1045.09  1115.85  1135.21  1229.35  1330.35
                             1406.39  1465.61  1473.82  1511.61  1522.75
                             1533.86  1563.99  1570.61  1593.31  1608.26
                             1645.08  1692.53  1722.14  1760.95  1791.35
                             1834.88  1906.46  1945.15  1951.66  1972.73
                             1974.70  1998.17  2007.54  2043.41  2066.48
                             2080.76  2103.11  2121.20  2157.75  2201.84
                             2505.42  2540.91  4322.98  4347.08  4358.72
                             4377.07  4429.44  4447.65  4516.52  4827.54
                             4960.43  5236.62  5357.67  5357.80  5380.45
                             5388.65  5393.96  5460.59

 Zero-point correction=                           0.248113 (Hartree/Particle)
 Thermal correction to Energy=                    0.265174
 Thermal correction to Enthalpy=                  0.266118
 Thermal correction to Gibbs Free Energy=         0.204348
 Sum of electronic and zero-point Energies=           -839.735366
 Sum of electronic and thermal Energies=              -839.718306
 Sum of electronic and thermal Enthalpies=            -839.717362
 Sum of electronic and thermal Free Energies=         -839.779132

                     E (Thermal)             CV                S
                      KCal/Mol        Cal/Mol-Kelvin    Cal/Mol-Kelvin
 Total                  166.399             63.282            130.007
 Electronic               0.000              0.000              0.000
 Translational            0.889              2.981             42.015
 Rotational               0.889              2.981             32.093
 Vibrational            164.622             57.320             55.899
 Vibration     1          0.594              1.983              5.695
 Vibration     2          0.597              1.972              4.370
 Vibration     3          0.600              1.963              3.915
 Vibration     4          0.601              1.959              3.753
 Vibration     5          0.605              1.945              3.348
 Vibration     6          0.611              1.925              2.965
 Vibration     7          0.620              1.895              2.591
 Vibration     8          0.630              1.865              2.314
 Vibration     9          0.645              1.817              1.996
 Vibration    10          0.658              1.776              1.789
 Vibration    11          0.665              1.756              1.703
 Vibration    12          0.672              1.734              1.617
 Vibration    13          0.674              1.727              1.592
 Vibration    14          0.681              1.708              1.526
 Vibration    15          0.693              1.672              1.413
 Vibration    16          0.696              1.662              1.384
 Vibration    17          0.705              1.638              1.318
 Vibration    18          0.709              1.626              1.286
 Vibration    19          0.731              1.563              1.140
 Vibration    20          0.754              1.503              1.021
 Vibration    21          0.760              1.485              0.988
 Vibration    22          0.772              1.454              0.935
 Vibration    23          0.798              1.387              0.833
 Vibration    24          0.814              1.347              0.777
 Vibration    25          0.828              1.314              0.734
 Vibration    26          0.867              1.224              0.629
 Vibration    27          0.899              1.154              0.558
 Vibration    28          0.915              1.120              0.526
 Vibration    29          0.932              1.085              0.494
 Vibration    30          0.966              1.017              0.438

 Normal termination of Gaussian 09 at Wed Jan 25 21:50:35 2017.
