 Gaussian 09, Revision E.01,
 Gaussian 09:  ES64L-G09RevE.01 30-Nov-2015

 -----------------------------------------
 # opt=(MaxCycle=1000) freq B3LYP/6-31G(d)
 -----------------------------------------

 -------------------------------------------------
 ./boats/1/glo_2w_alpha_ts_boat1_B3LYP_631Gd_r.out
 -------------------------------------------------
 Symbolic Z-matrix:
 Charge =  0 Multiplicity = 1

 SCF Done:  E(RB3LYP) =  -839.968355878     A.U. after   14 cycles
 SCF Done:  E(RB3LYP) =  -839.974323542     A.U. after   14 cycles
 SCF Done:  E(RB3LYP) =  -839.980223458     A.U. after   13 cycles
 SCF Done:  E(RB3LYP) =  -839.985591747     A.U. after   13 cycles
 SCF Done:  E(RB3LYP) =  -839.989075972     A.U. after   12 cycles
 SCF Done:  E(RB3LYP) =  -839.990142315     A.U. after   12 cycles
 SCF Done:  E(RB3LYP) =  -839.992114567     A.U. after   12 cycles
 SCF Done:  E(RB3LYP) =  -839.992545975     A.U. after   12 cycles
 SCF Done:  E(RB3LYP) =  -839.991681272     A.U. after   13 cycles
 SCF Done:  E(RB3LYP) =  -839.992945075     A.U. after   10 cycles
 SCF Done:  E(RB3LYP) =  -839.999032778     A.U. after   11 cycles
 SCF Done:  E(RB3LYP) =  -839.999044850     A.U. after   11 cycles
 SCF Done:  E(RB3LYP) =  -839.999057676     A.U. after   10 cycles
 SCF Done:  E(RB3LYP) =  -839.999062738     A.U. after    8 cycles
 SCF Done:  E(RB3LYP) =  -839.999065915     A.U. after    8 cycles
 SCF Done:  E(RB3LYP) =  -839.999067483     A.U. after    8 cycles
 SCF Done:  E(RB3LYP) =  -839.999068394     A.U. after    8 cycles
 SCF Done:  E(RB3LYP) =  -839.999068918     A.U. after    7 cycles
 SCF Done:  E(RB3LYP) =  -839.999069130     A.U. after    7 cycles
 Optimization completed.
    -- Stationary point found.
 Normal termination of Gaussian 09 at Sun Jan 15 13:15:45 2017.

 --------------------------------------------------------------------
 #N Geom=AllCheck Guess=TCheck SCRF=Check GenChk RB3LYP/6-31G(d) Freq
 --------------------------------------------------------------------

 Structure from the checkpoint file:  "/scratch/10462944.yak.local/Gau-31716.chk"
 -------------------------------------------------
 ./boats/1/glo_2w_alpha_ts_boat1_B3LYP_631Gd_r.out
 -------------------------------------------------
 Charge =  0 Multiplicity = 1

                         Standard orientation:
 ---------------------------------------------------------------------
 Center     Atomic      Atomic             Coordinates (Angstroms)
 Number     Number       Type             X           Y           Z
 ---------------------------------------------------------------------
      1          1           0       -1.640895   -0.886228    1.189485
      2          6           0       -1.584501   -0.746717    0.100413
      3          6           0        0.145873    1.109225    0.325360
      4          6           0        1.379404   -0.102667   -1.633976
      5          6           0        1.224404    1.146444   -0.779555
      6          8           0       -0.576264   -1.562613   -0.466714
      7          6           0       -1.287634    0.749478   -0.140738
      8          1           0        0.913861    1.939863   -1.483083
      9          1           0       -1.403898    0.978506   -1.215140
     10          6           0       -2.909678   -1.186004   -0.524332
     11          1           0       -3.081027   -2.244900   -0.291564
     12          1           0       -2.839404   -1.081820   -1.616841
     13          1           0        0.467104    0.386724    1.089128
     14          8           0       -3.964736   -0.367339    0.004374
     15          1           0       -4.768877   -0.517716   -0.513596
     16          8           0        2.467166    1.491711   -0.180828
     17          1           0        2.257729    2.257471    0.385104
     18          8           0        0.195897    2.423053    0.872677
     19          1           0       -0.703486    2.608509    1.202733
     20          8           0       -2.168835    1.566745    0.624081
     21          1           0       -3.064132    1.189098    0.515922
     22          1           0        0.554653   -0.262563   -2.349166
     23          8           0        2.347890   -0.835455   -1.633752
     24          8           0        1.027097   -2.071929    1.632257
     25          1           0        1.192287   -2.987174    1.901925
     26          1           0        1.929447   -1.684316    1.447405
     27          1           0        0.026339   -1.861563    0.265258
     28          8           0        3.392659   -0.956571    0.956790
     29          1           0        3.374109   -1.157176    0.000338
     30          1           0        3.211982    0.003915    0.917983
 ---------------------------------------------------------------------

 SCF Done:  E(RB3LYP) =  -839.999069130     A.U. after    1 cycles

 The electronic state is 1-A.
 Alpha  occ. eigenvalues --  -19.17926 -19.16676 -19.15975 -19.15137 -19.14735
 Alpha  occ. eigenvalues --  -19.14160 -19.13649 -19.13470 -10.28649 -10.25524
 Alpha  occ. eigenvalues --  -10.24737 -10.24636 -10.24532 -10.24080  -1.06326
 Alpha  occ. eigenvalues --   -1.05215  -1.04380  -1.03004  -1.01491  -1.00359
 Alpha  occ. eigenvalues --   -1.00063  -0.98557  -0.78438  -0.75469  -0.70072
 Alpha  occ. eigenvalues --   -0.63824  -0.60293  -0.57488  -0.55731  -0.55010
 Alpha  occ. eigenvalues --   -0.52784  -0.52158  -0.50458  -0.49635  -0.49290
 Alpha  occ. eigenvalues --   -0.46844  -0.45994  -0.45369  -0.44926  -0.43851
 Alpha  occ. eigenvalues --   -0.42597  -0.41144  -0.39804  -0.38218  -0.37626
 Alpha  occ. eigenvalues --   -0.37465  -0.36111  -0.35793  -0.34442  -0.32786
 Alpha  occ. eigenvalues --   -0.30832  -0.29883  -0.29736  -0.29444  -0.28430
 Alpha  occ. eigenvalues --   -0.27132  -0.26380  -0.25375
 Alpha virt. eigenvalues --   -0.02901   0.04062   0.06585   0.07718   0.08705
 Alpha virt. eigenvalues --    0.10518   0.11852   0.13752   0.14363   0.14723
 Alpha virt. eigenvalues --    0.15514   0.16293   0.17114   0.17418   0.18746

 Mulliken charges:
               1
     1  H    0.150544
     2  C    0.083666
     3  C    0.108087
     4  C    0.278672
     5  C    0.059453
     6  O   -0.680704
     7  C    0.121630
     8  H    0.150242
     9  H    0.108622
    10  C   -0.048007
    11  H    0.148351
    12  H    0.137434
    13  H    0.154462
    14  O   -0.642034
    15  H    0.410745
    16  O   -0.644550
    17  H    0.429103
    18  O   -0.680387
    19  H    0.433972
    20  O   -0.692504
    21  H    0.435861
    22  H    0.132797
    23  O   -0.421495
    24  O   -0.834072
    25  H    0.397138
    26  H    0.436093
    27  H    0.448953
    28  O   -0.826766
    29  H    0.426090
    30  H    0.418606
 Sum of Mulliken charges =  -0.00000

 Dipole moment (field-independent basis, Debye):
    X=             -4.6135    Y=             -0.3375    Z=             -1.1454  Tot=              4.7656
 Quadrupole moment (field-independent basis, Debye-Ang):
   XX=            -78.4595   YY=            -79.7195   ZZ=            -83.6741
   XY=              5.0940   XZ=              6.6412   YZ=             -4.0938

  Exact polarizability: 112.897  -2.157  94.545   1.969   2.722  81.627
 Approx polarizability: 145.240 -10.831 132.892   1.138   6.515 119.472

                      1                      2                      3
                      A                      A                      A
 Frequencies --     39.5074                54.4418                63.0197
 Red. masses --      6.2496                 6.5201                 6.9526
 Frc consts  --      0.0057                 0.0114                 0.0163
 IR Inten    --      0.3171                 2.2412                 0.6356

                      4                      5                      6
                      A                      A                      A
 Frequencies --     69.3789                76.0920               117.5120
 Red. masses --      7.7072                 4.3235                 8.2775
 Frc consts  --      0.0219                 0.0147                 0.0673
 IR Inten    --      0.6319                 4.9467                 2.2366

                      7                      8                      9
                      A                      A                      A
 Frequencies --    153.4389               163.6828               184.7075
 Red. masses --      3.1281                 5.1247                 5.0859
 Frc consts  --      0.0434                 0.0809                 0.1022
 IR Inten    --      4.8639                 1.3990                13.2594

                     10                     11                     12
                      A                      A                      A
 Frequencies --    195.5895               225.9053               240.8734
 Red. masses --      5.0853                 4.1096                 5.0437
 Frc consts  --      0.1146                 0.1236                 0.1724
 IR Inten    --      1.8078                28.2511                33.3134

                     13                     14                     15
                      A                      A                      A
 Frequencies --    257.3534               262.4485               276.2872
 Red. masses --      1.1507                 1.3198                 1.2409
 Frc consts  --      0.0449                 0.0536                 0.0558
 IR Inten    --     65.0497                37.8891                82.7484

                     16                     17                     18
                      A                      A                      A
 Frequencies --    280.9087               303.9623               326.5711
 Red. masses --      3.8701                 5.5892                 2.7200
 Frc consts  --      0.1799                 0.3043                 0.1709
 IR Inten    --      9.3359                25.4099                12.4755

                     19                     20                     21
                      A                      A                      A
 Frequencies --    329.8889               345.9892               385.0379
 Red. masses --      4.3891                 4.9254                 2.2292
 Frc consts  --      0.2814                 0.3474                 0.1947
 IR Inten    --      4.0203                 2.2055               120.9161

                     22                     23                     24
                      A                      A                      A
 Frequencies --    406.4864               417.5349               431.1860
 Red. masses --      2.6649                 4.4411                 2.6120
 Frc consts  --      0.2594                 0.4562                 0.2861
 IR Inten    --     47.5770                13.8836                23.4238

                     25                     26                     27
                      A                      A                      A
 Frequencies --    450.5660               457.2487               501.4317
 Red. masses --      2.8513                 1.0737                 4.3285
 Frc consts  --      0.3410                 0.1323                 0.6412
 IR Inten    --      1.8174                31.3579                12.0427

                     28                     29                     30
                      A                      A                      A
 Frequencies --    550.9946               566.9158               573.6527
 Red. masses --      1.0706                 1.8087                 1.1509
 Frc consts  --      0.1915                 0.3425                 0.2231
 IR Inten    --    148.4449                59.1017                 1.8409

                     31                     32                     33
                      A                      A                      A
 Frequencies --    585.6220               631.3346               756.9679
 Red. masses --      1.7096                 3.2394                 4.7055
 Frc consts  --      0.3454                 0.7607                 1.5886
 IR Inten    --     87.2410                17.8964                52.3072

                     34                     35                     36
                      A                      A                      A
 Frequencies --    790.8413               853.8006               883.8652
 Red. masses --      1.1171                 2.0801                 1.0817
 Frc consts  --      0.4116                 0.8934                 0.4979
 IR Inten    --    306.0802                 5.9456               184.5568

                     37                     38                     39
                      A                      A                      A
 Frequencies --    907.9991               952.1465               990.5175
 Red. masses --      1.8614                 2.8772                 3.0443
 Frc consts  --      0.9042                 1.5369                 1.7598
 IR Inten    --      5.2760                 3.2422                12.4849

                     40                     41                     42
                      A                      A                      A
 Frequencies --   1010.1438              1042.7487              1060.5134
 Red. masses --      1.0561                 2.5101                 4.3410
 Frc consts  --      0.6349                 1.6080                 2.8765
 IR Inten    --     85.5294                83.3444                 8.1975

                     43                     44                     45
                      A                      A                      A
 Frequencies --   1090.2847              1108.5523              1115.9289
 Red. masses --      3.0015                 5.1026                 3.7905
 Frc consts  --      2.1022                 3.6945                 2.7811
 IR Inten    --    104.0233                56.9162                28.1798

                     46                     47                     48
                      A                      A                      A
 Frequencies --   1119.9252              1146.3546              1151.0891
 Red. masses --      3.6670                 3.0030                 3.9508
 Frc consts  --      2.7098                 2.3251                 3.0843
 IR Inten    --    109.4440                 5.2009                37.4380

                     49                     50                     51
                      A                      A                      A
 Frequencies --   1225.8449              1249.4549              1266.3148
 Red. masses --      1.1855                 1.1975                 1.2071
 Frc consts  --      1.0496                 1.1015                 1.1405
 IR Inten    --     12.3070                53.0671                10.0558

                     52                     53                     54
                      A                      A                      A
 Frequencies --   1286.1310              1306.3602              1332.5461
 Red. masses --      1.1201                 1.1745                 1.1033
 Frc consts  --      1.0917                 1.1810                 1.1542
 IR Inten    --     67.5271                 9.9717                42.3213

                     55                     56                     57
                      A                      A                      A
 Frequencies --   1341.7939              1364.2703              1398.2885
 Red. masses --      1.1633                 1.2061                 1.2000
 Frc consts  --      1.2340                 1.3227                 1.3824
 IR Inten    --     80.0623                21.9583                 9.0146

                     58                     59                     60
                      A                      A                      A
 Frequencies --   1410.6199              1419.5588              1443.6227
 Red. masses --      1.3580                 1.3466                 1.3113
 Frc consts  --      1.5921                 1.5988                 1.6101
 IR Inten    --     10.6144                14.1243                13.0341

                     61                     62                     63
                      A                      A                      A
 Frequencies --   1451.9719              1468.3327              1475.0536
 Red. masses --      1.3119                 1.4245                 1.3950
 Frc consts  --      1.6296                 1.8095                 1.7883
 IR Inten    --      9.5001               140.2517                52.3759

                     64                     65                     66
                      A                      A                      A
 Frequencies --   1507.8647              1546.7198              1750.8045
 Red. masses --      1.3550                 1.0911                 1.0850
 Frc consts  --      1.8151                 1.5379                 1.9596
 IR Inten    --      9.0169                 4.8099               213.5407

                     67                     68                     69
                      A                      A                      A
 Frequencies --   1761.4362              1817.2021              2962.2523
 Red. masses --      1.1164                 6.8362                 1.0827
 Frc consts  --      2.0409                13.3006                 5.5974
 IR Inten    --    165.1590               117.0389                26.3398

                     70                     71                     72
                      A                      A                      A
 Frequencies --   2971.3999              3019.5813              3023.4497
 Red. masses --      1.0806                 1.0871                 1.0626
 Frc consts  --      5.6212                 5.8403                 5.7233
 IR Inten    --     24.7681                54.7702                34.3011

                     73                     74                     75
                      A                      A                      A
 Frequencies --   3035.4355              3041.4938              3075.8014
 Red. masses --      1.0825                 1.0841                 1.1069
 Frc consts  --      5.8766                 5.9090                 6.1696
 IR Inten    --     26.4408                40.8466                56.0119

                     76                     77                     78
                      A                      A                      A
 Frequencies --   3212.8917              3340.8889              3615.2671
 Red. masses --      1.0666                 1.0668                 1.0660
 Frc consts  --      6.4872                 7.0154                 8.2089
 IR Inten    --    954.4340               702.1769               340.7225

                     79                     80                     81
                      A                      A                      A
 Frequencies --   3645.5947              3660.2677              3678.9895
 Red. masses --      1.0482                 1.0646                 1.0752
 Frc consts  --      8.2082                 8.4039                 8.5743
 IR Inten    --    213.9944                83.1545               146.6336

                     82                     83                     84
                      A                      A                      A
 Frequencies --   3690.8173              3771.9028              3802.5190
 Red. masses --      1.0661                 1.0668                 1.0665
 Frc consts  --      8.5563                 8.9422                 9.0852
 IR Inten    --     14.2464                29.5711                37.0439

 - Thermochemistry -
 -------------------
 Temperature   298.150 Kelvin.  Pressure   1.00000 Atm.
 Atom     1 has atomic number  1 and mass   1.00783

 Molecular mass:   216.08452 amu.
 Principal axes and moments of inertia in atomic units:
                           1         2         3
     Eigenvalues --  2134.170544251.388085030.41052
           X            0.99988   0.00592   0.01455
           Y           -0.00556   0.99969  -0.02444
           Z           -0.01469   0.02436   0.99960
 This molecule is an asymmetric top.
 Rotational symmetry number  1.
 Warning -- assumption of classical behavior for rotation
           may cause significant error
 Rotational temperatures (Kelvin)      0.04058     0.02037     0.01722
 Rotational constants (GHZ):           0.84564     0.42451     0.35877
 Zero-point vibrational energy     647658.2 (Joules/Mol)
                                  154.79402 (Kcal/Mol)
 Warning -- explicit consideration of  31 degrees of freedom as
           vibrations may cause significant error
 Vibrational temperatures:     56.84    78.33    90.67    99.82   109.48
          (Kelvin)            169.07   220.76   235.50   265.75   281.41
                              325.03   346.56   370.27   377.60   397.52
                              404.16   437.33   469.86   474.64   497.80
                              553.98   584.84   600.74   620.38   648.26
                              657.88   721.45   792.76   815.66   825.36
                              842.58   908.35  1089.11  1137.84  1228.43
                             1271.68  1306.41  1369.92  1425.13  1453.37
                             1500.28  1525.84  1568.67  1594.96  1605.57
                             1611.32  1649.35  1656.16  1763.72  1797.68
                             1821.94  1850.45  1879.56  1917.23  1930.54
                             1962.88  2011.82  2029.56  2042.43  2077.05
                             2089.06  2112.60  2122.27  2169.48  2225.38
                             2519.01  2534.31  2614.55  4262.01  4275.18
                             4344.50  4350.06  4367.31  4376.03  4425.39
                             4622.63  4806.79  5201.56  5245.19  5266.30
                             5293.24  5310.26  5426.92  5470.97

 Zero-point correction=                           0.246680 (Hartree/Particle)
 Thermal correction to Energy=                    0.264718
 Thermal correction to Enthalpy=                  0.265662
 Thermal correction to Gibbs Free Energy=         0.201492
 Sum of electronic and zero-point Energies=           -839.752389
 Sum of electronic and thermal Energies=              -839.734351
 Sum of electronic and thermal Enthalpies=            -839.733407
 Sum of electronic and thermal Free Energies=         -839.797577

                     E (Thermal)             CV                S
                      KCal/Mol        Cal/Mol-Kelvin    Cal/Mol-Kelvin
 Total                  166.113             65.798            135.056
 Electronic               0.000              0.000              0.000
 Translational            0.889              2.981             42.015
 Rotational               0.889              2.981             32.190
 Vibrational            164.335             59.836             60.852
 Vibration     1          0.594              1.981              5.284
 Vibration     2          0.596              1.976              4.649
 Vibration     3          0.597              1.972              4.360
 Vibration     4          0.598              1.969              4.171
 Vibration     5          0.599              1.965              3.989
 Vibration     6          0.608              1.935              3.141
 Vibration     7          0.619              1.899              2.629
 Vibration     8          0.623              1.887              2.507
 Vibration     9          0.631              1.861              2.280
 Vibration    10          0.636              1.846              2.174
 Vibration    11          0.650              1.802              1.911
 Vibration    12          0.658              1.778              1.796
 Vibration    13          0.667              1.750              1.680
 Vibration    14          0.670              1.742              1.645
 Vibration    15          0.678              1.717              1.557
 Vibration    16          0.681              1.709              1.528
 Vibration    17          0.695              1.666              1.395
 Vibration    18          0.710              1.622              1.277
 Vibration    19          0.713              1.616              1.261
 Vibration    20          0.724              1.583              1.184
 Vibration    21          0.754              1.502              1.019
 Vibration    22          0.771              1.456              0.939
 Vibration    23          0.781              1.432              0.900
 Vibration    24          0.792              1.402              0.855
 Vibration    25          0.809              1.360              0.794
 Vibration    26          0.815              1.345              0.774
 Vibration    27          0.857              1.247              0.655
 Vibration    28          0.906              1.138              0.542
 Vibration    29          0.923              1.103              0.510
 Vibration    30          0.930              1.088              0.497
 Vibration    31          0.943              1.062              0.475

 Normal termination of Gaussian 09 at Sun Jan 15 13:34:07 2017.
