 Gaussian 09, Revision E.01,
 Gaussian 09:  ES64L-G09RevE.01 30-Nov-2015

 -----------------------------------------
 # opt=(MaxCycle=1000) freq B3LYP/6-31G(d)
 -----------------------------------------

 -------------------------------------------------
 ./boats/1/glo_1w_alpha_ts_boat1_B3LYP_631Gd_r.out
 -------------------------------------------------
 Symbolic Z-matrix:
 Charge =  0 Multiplicity = 1

 SCF Done:  E(RB3LYP) =  -839.969914286     A.U. after   14 cycles
 SCF Done:  E(RB3LYP) =  -839.978493317     A.U. after   14 cycles
 SCF Done:  E(RB3LYP) =  -839.982603623     A.U. after   13 cycles
 SCF Done:  E(RB3LYP) =  -839.985171605     A.U. after   12 cycles
 SCF Done:  E(RB3LYP) =  -839.987695597     A.U. after   13 cycles
 SCF Done:  E(RB3LYP) =  -839.988414391     A.U. after   13 cycles
 SCF Done:  E(RB3LYP) =  -839.988741455     A.U. after   12 cycles
 SCF Done:  E(RB3LYP) =  -839.989300508     A.U. after   11 cycles
 SCF Done:  E(RB3LYP) =  -839.989473382     A.U. after   11 cycles
 SCF Done:  E(RB3LYP) =  -839.989517645     A.U. after   11 cycles
 SCF Done:  E(RB3LYP) =  -839.990313511     A.U. after   11 cycles
 SCF Done:  E(RB3LYP) =  -839.990327516     A.U. after   10 cycles
 SCF Done:  E(RB3LYP) =  -839.990334919     A.U. after   10 cycles
 SCF Done:  E(RB3LYP) =  -839.990340064     A.U. after    9 cycles
 SCF Done:  E(RB3LYP) =  -839.990343595     A.U. after    8 cycles
 SCF Done:  E(RB3LYP) =  -839.990345634     A.U. after    8 cycles
 SCF Done:  E(RB3LYP) =  -839.990346415     A.U. after    7 cycles
 SCF Done:  E(RB3LYP) =  -839.990346699     A.U. after    7 cycles
 SCF Done:  E(RB3LYP) =  -839.990346778     A.U. after    7 cycles
 Optimization completed.
    -- Stationary point found.
 Normal termination of Gaussian 09 at Sun Jan 15 12:56:07 2017.

 --------------------------------------------------------------------
 #N Geom=AllCheck Guess=TCheck SCRF=Check GenChk RB3LYP/6-31G(d) Freq
 --------------------------------------------------------------------

 Structure from the checkpoint file:  "/scratch/10462947.yak.local/Gau-14927.chk"
 -------------------------------------------------
 ./boats/1/glo_1w_alpha_ts_boat1_B3LYP_631Gd_r.out
 -------------------------------------------------
 Charge =  0 Multiplicity = 1

                         Standard orientation:
 ---------------------------------------------------------------------
 Center     Atomic      Atomic             Coordinates (Angstroms)
 Number     Number       Type             X           Y           Z
 ---------------------------------------------------------------------
      1          1           0       -0.228484    1.447318    1.028443
      2          6           0        0.066661    1.343547   -0.024145
      3          6           0        0.498125   -1.217440    0.405298
      4          6           0       -1.765100   -1.416600   -0.851697
      5          6           0       -1.019412   -1.505521    0.471804
      6          8           0       -1.045163    1.119911   -0.869633
      7          6           0        0.994810    0.125629   -0.195014
      8          1           0       -1.066286   -2.579570    0.723566
      9          1           0        1.111802   -0.025808   -1.278935
     10          6           0        0.707380    2.657469   -0.496708
     11          1           0       -0.049739    3.449480   -0.436880
     12          1           0        1.004150    2.544704   -1.549009
     13          1           0        0.846832   -1.206160    1.455037
     14          8           0        1.841442    2.981189    0.328637
     15          1           0        2.300314    3.740178   -0.062291
     16          8           0       -1.696427   -0.743117    1.466586
     17          1           0       -1.372380   -1.026033    2.334814
     18          8           0        1.025129   -2.324746   -0.297487
     19          1           0        2.010773   -2.257874   -0.328580
     20          8           0        2.282732    0.353015    0.409195
     21          1           0        2.464861    1.316716    0.388788
     22          1           0       -1.148470   -1.688498   -1.727854
     23          8           0       -2.955213   -1.197475   -0.948813
     24          8           0       -3.403440    1.250172    0.473211
     25          1           0       -3.811499    0.641150   -0.168332
     26          1           0       -1.886765    1.347922   -0.396766
     27          1           0       -3.007581    0.610216    1.097154
     28          8           0        3.747929   -1.831671   -0.248274
     29          1           0        3.467389   -0.912239   -0.030130
     30          1           0        4.094378   -2.182222    0.586374
 ---------------------------------------------------------------------

 SCF Done:  E(RB3LYP) =  -839.990346778     A.U. after    1 cycles

 The electronic state is 1-A.
 Alpha  occ. eigenvalues --  -19.18323 -19.18244 -19.15564 -19.14622 -19.14583
 Alpha  occ. eigenvalues --  -19.13996 -19.13731 -19.12948 -10.27853 -10.25583
 Alpha  occ. eigenvalues --  -10.24715 -10.24471 -10.24442 -10.24174  -1.06127
 Alpha  occ. eigenvalues --   -1.05387  -1.03623  -1.02952  -1.01584  -1.00567
 Alpha  occ. eigenvalues --   -0.99900  -0.99511  -0.77739  -0.75518  -0.70415
 Alpha  occ. eigenvalues --   -0.63827  -0.60331  -0.57955  -0.55508  -0.54532
 Alpha  occ. eigenvalues --   -0.52981  -0.52512  -0.51110  -0.49926  -0.48843
 Alpha  occ. eigenvalues --   -0.47047  -0.46467  -0.45399  -0.44218  -0.42849
 Alpha  occ. eigenvalues --   -0.42320  -0.40515  -0.39515  -0.38498  -0.38336
 Alpha  occ. eigenvalues --   -0.37115  -0.36355  -0.34976  -0.34633  -0.33690
 Alpha  occ. eigenvalues --   -0.30837  -0.30320  -0.29604  -0.29244  -0.27730
 Alpha  occ. eigenvalues --   -0.27143  -0.26135  -0.24735
 Alpha virt. eigenvalues --   -0.02034   0.03677   0.04827   0.07236   0.10175
 Alpha virt. eigenvalues --    0.11148   0.11273   0.12382   0.14293   0.14456
 Alpha virt. eigenvalues --    0.14997   0.15584   0.16989   0.17862   0.19340

 Mulliken charges:
               1
     1  H    0.137583
     2  C    0.084511
     3  C    0.116570
     4  C    0.282819
     5  C    0.049020
     6  O   -0.673142
     7  C    0.131623
     8  H    0.173577
     9  H    0.140823
    10  C   -0.069859
    11  H    0.154288
    12  H    0.144787
    13  H    0.105570
    14  O   -0.636807
    15  H    0.411948
    16  O   -0.638123
    17  H    0.410111
    18  O   -0.681628
    19  H    0.429995
    20  O   -0.705656
    21  H    0.437238
    22  H    0.145039
    23  O   -0.439379
    24  O   -0.812623
    25  H    0.421512
    26  H    0.433517
    27  H    0.427912
    28  O   -0.804829
    29  H    0.430610
    30  H    0.392995
 Sum of Mulliken charges =  -0.00000

 Dipole moment (field-independent basis, Debye):
    X=              3.1428    Y=              1.9483    Z=              2.9253  Tot=              4.7149
 Quadrupole moment (field-independent basis, Debye-Ang):
   XX=            -90.1959   YY=            -76.4401   ZZ=            -79.6980
   XY=             10.8036   XZ=              0.7393   YZ=            -11.0413

  Exact polarizability: 110.508  -0.912  99.690   3.211  -0.738  80.729
 Approx polarizability: 147.334  -4.841 127.620   6.628   2.506 122.584

                      1                      2                      3
                      A                      A                      A
 Frequencies --     31.5540                55.4961                65.4308
 Red. masses --      6.0602                 6.5958                 5.9539
 Frc consts  --      0.0036                 0.0120                 0.0150
 IR Inten    --      0.7112                 4.3407                 0.5382

                      4                      5                      6
                      A                      A                      A
 Frequencies --     85.8248               127.2630               138.4490
 Red. masses --      6.5128                 6.5167                 3.3902
 Frc consts  --      0.0283                 0.0622                 0.0383
 IR Inten    --      2.1348                 0.9691                41.5184

                      7                      8                      9
                      A                      A                      A
 Frequencies --    150.7083               159.0973               166.5206
 Red. masses --      5.3355                 3.0878                 3.0593
 Frc consts  --      0.0714                 0.0460                 0.0500
 IR Inten    --      0.9765                 1.7350                10.8735

                     10                     11                     12
                      A                      A                      A
 Frequencies --    183.8449               198.2396               214.7030
 Red. masses --      4.6775                 3.5543                 2.2740
 Frc consts  --      0.0931                 0.0823                 0.0618
 IR Inten    --      3.7290                19.6550                22.5231

                     13                     14                     15
                      A                      A                      A
 Frequencies --    225.5963               242.8457               253.2495
 Red. masses --      3.9552                 2.7459                 1.3686
 Frc consts  --      0.1186                 0.0954                 0.0517
 IR Inten    --     37.1120                50.1519                87.9898

                     16                     17                     18
                      A                      A                      A
 Frequencies --    263.7538               287.6476               314.0565
 Red. masses --      5.4447                 4.5299                 1.1519
 Frc consts  --      0.2232                 0.2208                 0.0669
 IR Inten    --     43.8169                 3.2798                51.0177

                     19                     20                     21
                      A                      A                      A
 Frequencies --    316.3455               329.4777               344.6094
 Red. masses --      1.4502                 2.3937                 1.5952
 Frc consts  --      0.0855                 0.1531                 0.1116
 IR Inten    --     81.3974                24.2312                68.7364

                     22                     23                     24
                      A                      A                      A
 Frequencies --    364.0062               400.7079               422.6556
 Red. masses --      1.8293                 5.1724                 6.7125
 Frc consts  --      0.1428                 0.4893                 0.7065
 IR Inten    --     32.2026                 3.5583                13.0568

                     25                     26                     27
                      A                      A                      A
 Frequencies --    447.5356               474.5372               537.3949
 Red. masses --      4.7728                 3.6296                 2.4142
 Frc consts  --      0.5632                 0.4816                 0.4108
 IR Inten    --      3.9795                14.5636                 9.4998

                     28                     29                     30
                      A                      A                      A
 Frequencies --    562.8825               583.5279               615.9595
 Red. masses --      4.5278                 1.3907                 1.5277
 Frc consts  --      0.8452                 0.2790                 0.3415
 IR Inten    --      7.7976                11.2058                57.3539

                     31                     32                     33
                      A                      A                      A
 Frequencies --    631.2890               645.7580               705.4619
 Red. masses --      1.8085                 1.1161                 3.6178
 Frc consts  --      0.4246                 0.2742                 1.0608
 IR Inten    --     32.3791               398.3098                43.1227

                     34                     35                     36
                      A                      A                      A
 Frequencies --    794.4672               817.1046               871.5609
 Red. masses --      1.1038                 3.1386                 1.1157
 Frc consts  --      0.4105                 1.2346                 0.4993
 IR Inten    --    214.2922                85.7406               130.8443

                     37                     38                     39
                      A                      A                      A
 Frequencies --    900.9915               946.7585               954.6903
 Red. masses --      1.7953                 1.1637                 1.8614
 Frc consts  --      0.8587                 0.6146                 0.9996
 IR Inten    --     15.5141               144.4999                10.4300

                     40                     41                     42
                      A                      A                      A
 Frequencies --   1025.2249              1034.8100              1066.9285
 Red. masses --      2.3182                 5.1124                 2.4322
 Frc consts  --      1.4356                 3.2255                 1.6312
 IR Inten    --     35.5344                17.8030                44.7332

                     43                     44                     45
                      A                      A                      A
 Frequencies --   1070.1388              1102.6587              1113.7862
 Red. masses --      5.4006                 3.9899                 4.0229
 Frc consts  --      3.6440                 2.8582                 2.9403
 IR Inten    --    198.5265                67.8915                 3.6795

                     46                     47                     48
                      A                      A                      A
 Frequencies --   1134.2812              1143.1198              1150.1024
 Red. masses --      2.8484                 3.7089                 2.5284
 Frc consts  --      2.1592                 2.8555                 1.9705
 IR Inten    --      4.1807                60.7030                 6.9693

                     49                     50                     51
                      A                      A                      A
 Frequencies --   1239.9344              1251.5123              1254.6833
 Red. masses --      1.1731                 1.1528                 1.1550
 Frc consts  --      1.0627                 1.0638                 1.0713
 IR Inten    --     23.9691                51.0005                40.4235

                     52                     53                     54
                      A                      A                      A
 Frequencies --   1285.0742              1296.4362              1325.2771
 Red. masses --      1.3676                 1.1666                 1.1211
 Frc consts  --      1.3307                 1.1552                 1.1601
 IR Inten    --      1.4975                 3.6568                14.5730

                     55                     56                     57
                      A                      A                      A
 Frequencies --   1333.1972              1363.7897              1395.6394
 Red. masses --      1.1824                 1.2718                 1.2472
 Frc consts  --      1.2383                 1.3937                 1.4313
 IR Inten    --      6.8649                 1.6401                68.1824

                     58                     59                     60
                      A                      A                      A
 Frequencies --   1414.2380              1423.8085              1450.9572
 Red. masses --      1.2972                 1.2223                 1.4692
 Frc consts  --      1.5286                 1.4599                 1.8224
 IR Inten    --     10.2196                10.0499                20.6254

                     61                     62                     63
                      A                      A                      A
 Frequencies --   1452.0461              1491.0889              1508.2538
 Red. masses --      1.4102                 1.3267                 1.2335
 Frc consts  --      1.7519                 1.7379                 1.6532
 IR Inten    --     18.4986                38.5696                53.3348

                     64                     65                     66
                      A                      A                      A
 Frequencies --   1520.0366              1546.1988              1730.2613
 Red. masses --      1.2669                 1.1134                 1.0737
 Frc consts  --      1.7246                 1.5684                 1.8940
 IR Inten    --     59.5863                 9.7720                50.0314

                     67                     68                     69
                      A                      A                      A
 Frequencies --   1742.9998              1817.6121              2942.4059
 Red. masses --      1.1323                 6.8842                 1.0822
 Frc consts  --      2.0268                13.4000                 5.5202
 IR Inten    --    186.9868               144.8482                55.6484

                     70                     71                     72
                      A                      A                      A
 Frequencies --   2983.6961              3005.7298              3016.9451
 Red. masses --      1.0813                 1.0871                 1.0839
 Frc consts  --      5.6717                 5.7865                 5.8127
 IR Inten    --     22.7633                31.4189                29.9985

                     73                     74                     75
                      A                      A                      A
 Frequencies --   3030.3437              3052.0411              3082.6231
 Red. masses --      1.0596                 1.0844                 1.1081
 Frc consts  --      5.7327                 5.9514                 6.2039
 IR Inten    --     32.8954                38.3593                49.4250

                     76                     77                     78
                      A                      A                      A
 Frequencies --   3342.6719              3397.9192              3499.3946
 Red. masses --      1.0700                 1.0677                 1.0618
 Frc consts  --      7.0440                 7.2630                 7.6611
 IR Inten    --    730.0557               396.6209               986.8910

                     79                     80                     81
                      A                      A                      A
 Frequencies --   3543.8984              3652.4151              3744.0534
 Red. masses --      1.0649                 1.0527                 1.0721
 Frc consts  --      7.8802                 8.2741                 8.8545
 IR Inten    --    245.8314               178.8494                70.2979

                     82                     83                     84
                      A                      A                      A
 Frequencies --   3759.4882              3761.8634              3793.5974
 Red. masses --      1.0666                 1.0666                 1.0689
 Frc consts  --      8.8823                 8.8929                 9.0636
 IR Inten    --     28.3443                30.8889                60.1185

 - Thermochemistry -
 -------------------
 Temperature   298.150 Kelvin.  Pressure   1.00000 Atm.
 Atom     1 has atomic number  1 and mass   1.00783

 Molecular mass:   216.08452 amu.
 Principal axes and moments of inertia in atomic units:
                           1         2         3
     Eigenvalues --  2518.136873656.829225414.81742
           X            0.99989  -0.01403  -0.00405
           Y            0.01397   0.99980  -0.01447
           Z            0.00425   0.01441   0.99989
 This molecule is an asymmetric top.
 Rotational symmetry number  1.
 Warning -- assumption of classical behavior for rotation
           may cause significant error
 Rotational temperatures (Kelvin)      0.03440     0.02369     0.01600
 Rotational constants (GHZ):           0.71670     0.49353     0.33330
 Zero-point vibrational energy     646732.2 (Joules/Mol)
                                  154.57271 (Kcal/Mol)
 Warning -- explicit consideration of  30 degrees of freedom as
           vibrations may cause significant error
 Vibrational temperatures:     45.40    79.85    94.14   123.48   183.10
          (Kelvin)            199.20   216.84   228.91   239.59   264.51
                              285.22   308.91   324.58   349.40   364.37
                              379.48   413.86   451.86   455.15   474.04
                              495.82   523.72   576.53   608.11   643.90
                              682.75   773.19   809.86   839.57   886.23
                              908.28   929.10  1015.00  1143.06  1175.63
                             1253.98  1296.32  1362.17  1373.58  1475.07
                             1488.86  1535.07  1539.69  1586.48  1602.49
                             1631.98  1644.69  1654.74  1783.99  1800.64
                             1805.21  1848.93  1865.28  1906.78  1918.17
                             1962.19  2008.01  2034.77  2048.54  2087.60
                             2089.17  2145.34  2170.04  2186.99  2224.63
                             2489.46  2507.78  2615.14  4233.46  4292.87
                             4324.57  4340.71  4359.98  4391.20  4435.20
                             4809.35  4888.84  5034.84  5098.87  5255.00
                             5386.85  5409.06  5412.48  5458.13

 Zero-point correction=                           0.246327 (Hartree/Particle)
 Thermal correction to Energy=                    0.264584
 Thermal correction to Enthalpy=                  0.265528
 Thermal correction to Gibbs Free Energy=         0.201054
 Sum of electronic and zero-point Energies=           -839.744019
 Sum of electronic and thermal Energies=              -839.725763
 Sum of electronic and thermal Enthalpies=            -839.724819
 Sum of electronic and thermal Free Energies=         -839.789293

                     E (Thermal)             CV                S
                      KCal/Mol        Cal/Mol-Kelvin    Cal/Mol-Kelvin
 Total                  166.029             66.184            135.697
 Electronic               0.000              0.000              0.000
 Translational            0.889              2.981             42.015
 Rotational               0.889              2.981             32.278
 Vibrational            164.251             60.222             61.404
 Vibration     1          0.594              1.983              5.729
 Vibration     2          0.596              1.975              4.611
 Vibration     3          0.597              1.971              4.286
 Vibration     4          0.601              1.959              3.753
 Vibration     5          0.611              1.926              2.987
 Vibration     6          0.614              1.915              2.825
 Vibration     7          0.618              1.902              2.663
 Vibration     8          0.621              1.892              2.561
 Vibration     9          0.624              1.884              2.474
 Vibration    10          0.631              1.862              2.289
 Vibration    11          0.637              1.842              2.149
 Vibration    12          0.645              1.819              2.003
 Vibration    13          0.650              1.802              1.914
 Vibration    14          0.659              1.775              1.782
 Vibration    15          0.664              1.757              1.708
 Vibration    16          0.670              1.739              1.637
 Vibration    17          0.685              1.697              1.488
 Vibration    18          0.702              1.647              1.341
 Vibration    19          0.703              1.642              1.329
 Vibration    20          0.712              1.617              1.263
 Vibration    21          0.723              1.586              1.191
 Vibration    22          0.738              1.546              1.105
 Vibration    23          0.767              1.469              0.960
 Vibration    24          0.785              1.421              0.883
 Vibration    25          0.807              1.366              0.803
 Vibration    26          0.831              1.307              0.725
 Vibration    27          0.892              1.167              0.571
 Vibration    28          0.919              1.112              0.518
 Vibration    29          0.940              1.067              0.479
 Vibration    30          0.976              0.998              0.423

 Normal termination of Gaussian 09 at Sun Jan 15 13:13:45 2017.
