 Gaussian 09, Revision E.01,
 Gaussian 09:  ES64L-G09RevE.01 30-Nov-2015

 -----------------------------------------
 # opt=(MaxCycle=1000) freq B3LYP/6-31G(d)
 -----------------------------------------

 ----------------------------------------------
 ./boats/1/glo_1w_beta_ts_boat1_B3LYP_631Gd.out
 ----------------------------------------------
 Symbolic Z-matrix:
 Charge =  0 Multiplicity = 1

 SCF Done:  E(RB3LYP) =  -839.969312676     A.U. after   14 cycles
 SCF Done:  E(RB3LYP) =  -839.898997467     A.U. after   14 cycles
 SCF Done:  E(RB3LYP) =  -839.977237677     A.U. after   11 cycles
 SCF Done:  E(RB3LYP) =  -839.982387978     A.U. after   11 cycles
 SCF Done:  E(RB3LYP) =  -839.986836437     A.U. after   12 cycles
 SCF Done:  E(RB3LYP) =  -839.992582306     A.U. after   12 cycles
 SCF Done:  E(RB3LYP) =  -839.994535699     A.U. after   12 cycles
 SCF Done:  E(RB3LYP) =  -839.995066085     A.U. after   11 cycles
 SCF Done:  E(RB3LYP) =  -839.996915871     A.U. after   11 cycles
 SCF Done:  E(RB3LYP) =  -839.997747806     A.U. after   11 cycles
 SCF Done:  E(RB3LYP) =  -839.998253406     A.U. after    8 cycles
 SCF Done:  E(RB3LYP) =  -839.998268254     A.U. after    9 cycles
 SCF Done:  E(RB3LYP) =  -839.998277341     A.U. after    8 cycles
 SCF Done:  E(RB3LYP) =  -839.998285272     A.U. after    9 cycles
 SCF Done:  E(RB3LYP) =  -839.998290281     A.U. after    8 cycles
 SCF Done:  E(RB3LYP) =  -839.998292983     A.U. after    7 cycles
 SCF Done:  E(RB3LYP) =  -839.998293278     A.U. after    7 cycles
 SCF Done:  E(RB3LYP) =  -839.998293155     A.U. after    6 cycles
 SCF Done:  E(RB3LYP) =  -839.998292913     A.U. after    7 cycles
 Optimization completed.
    -- Stationary point found.
 Normal termination of Gaussian 09 at Sun Jan 15 12:48:00 2017.

 --------------------------------------------------------------------
 #N Geom=AllCheck Guess=TCheck SCRF=Check GenChk RB3LYP/6-31G(d) Freq
 --------------------------------------------------------------------

 Structure from the checkpoint file:  "/scratch/10462941.yak.local/Gau-14151.chk"
 ----------------------------------------------
 ./boats/1/glo_1w_beta_ts_boat1_B3LYP_631Gd.out
 ----------------------------------------------
 Charge =  0 Multiplicity = 1

                         Standard orientation:
 ---------------------------------------------------------------------
 Center     Atomic      Atomic             Coordinates (Angstroms)
 Number     Number       Type             X           Y           Z
 ---------------------------------------------------------------------
      1          1           0       -0.138706    1.422725    1.461074
      2          6           0       -0.493752    0.969732    0.528197
      3          6           0        1.232502   -0.781605    0.071948
      4          6           0       -1.269665   -1.306496    0.036767
      5          6           0        0.142161   -1.763335   -0.367444
      6          8           0       -1.249586   -0.178259    0.939429
      7          6           0        0.767932    0.624925   -0.297654
      8          1           0       -1.743121   -2.090361    0.637152
      9          1           0        0.171196   -1.811093   -1.465577
     10          1           0        0.542159    0.641696   -1.373669
     11          6           0       -1.371570    1.990760   -0.200417
     12          1           0       -2.245338    2.248274    0.417261
     13          1           0       -1.721444    1.561968   -1.146654
     14          8           0       -1.999150   -1.012859   -1.119066
     15          1           0        1.336861   -0.844560    1.167574
     16          8           0       -0.547149    3.144804   -0.417193
     17          1           0       -0.963002    3.702924   -1.090320
     18          8           0        0.377811   -3.044499    0.194299
     19          1           0        1.307357   -3.240688   -0.015793
     20          8           0        2.409459   -1.211171   -0.579359
     21          1           0        3.180185   -0.734361   -0.191538
     22          8           0        1.777812    1.600347   -0.016190
     23          1           0        1.381960    2.460036   -0.251729
     24          8           0       -4.065633   -0.225973    0.594345
     25          1           0       -2.915677   -0.827717   -0.816175
     26          1           0       -3.242272   -0.015625    1.078508
     27          8           0        4.261715    0.534635    0.493886
     28          1           0        3.527929    1.154213    0.291113
     29          1           0        4.275623    0.490609    1.461982
     30          1           0       -4.521595    0.621865    0.487190
 ---------------------------------------------------------------------

 SCF Done:  E(RB3LYP) =  -839.998292913     A.U. after    1 cycles

 The electronic state is 1-A.
 Alpha  occ. eigenvalues --  -19.18365 -19.17141 -19.16458 -19.16218 -19.14671
 Alpha  occ. eigenvalues --  -19.14546 -19.13605 -19.12734 -10.28430 -10.25446
 Alpha  occ. eigenvalues --  -10.25232 -10.24464 -10.23204 -10.22919  -1.07288
 Alpha  occ. eigenvalues --   -1.05239  -1.03674  -1.01999  -1.01812  -1.00515
 Alpha  occ. eigenvalues --   -1.00195  -0.99177  -0.78824  -0.76797  -0.69860
 Alpha  occ. eigenvalues --   -0.63827  -0.62937  -0.56902  -0.55733  -0.54963
 Alpha  occ. eigenvalues --   -0.53809  -0.53143  -0.52690  -0.51036  -0.48408
 Alpha  occ. eigenvalues --   -0.47883  -0.45859  -0.44535  -0.44391  -0.42970
 Alpha  occ. eigenvalues --   -0.41854  -0.40719  -0.39850  -0.39257  -0.38412
 Alpha  occ. eigenvalues --   -0.37206  -0.36167  -0.34391  -0.33532  -0.32399
 Alpha  occ. eigenvalues --   -0.31156  -0.30780  -0.30192  -0.29396  -0.28094
 Alpha  occ. eigenvalues --   -0.27371  -0.26579  -0.25102
 Alpha virt. eigenvalues --    0.03147   0.04427   0.06799   0.08959   0.10950
 Alpha virt. eigenvalues --    0.11125   0.11843   0.12974   0.13163   0.14695
 Alpha virt. eigenvalues --    0.15769   0.15973   0.16752   0.18227   0.18465

 Mulliken charges:
               1
     1  H    0.155687
     2  C    0.129255
     3  C    0.090151
     4  C    0.301909
     5  C    0.131966
     6  O   -0.537521
     7  C    0.097610
     8  H    0.167120
     9  H    0.155726
    10  H    0.140629
    11  C   -0.073099
    12  H    0.117689
    13  H    0.162280
    14  O   -0.648675
    15  H    0.120982
    16  O   -0.638124
    17  H    0.411081
    18  O   -0.652177
    19  H    0.406406
    20  O   -0.683358
    21  H    0.431176
    22  O   -0.680982
    23  H    0.427454
    24  O   -0.801207
    25  H    0.423848
    26  H    0.422528
    27  O   -0.802210
    28  H    0.433507
    29  H    0.393451
    30  H    0.396899
 Sum of Mulliken charges =  -0.00000

 Dipole moment (field-independent basis, Debye):
    X=             -2.3603    Y=              5.5513    Z=              0.9344  Tot=              6.1042
 Quadrupole moment (field-independent basis, Debye-Ang):
   XX=            -86.2852   YY=            -78.9964   ZZ=            -81.8372
   XY=            -11.4871   XZ=              7.9197   YZ=             -4.1367

  Exact polarizability: 108.469  -3.088  99.939   2.435  -0.887  75.549
 Approx polarizability: 135.506  -0.650 129.876   2.832  -0.723 118.458

                      1                      2                      3
                      A                      A                      A
 Frequencies --     27.2247                41.9106                63.7539
 Red. masses --      5.9538                 5.7638                 5.2992
 Frc consts  --      0.0026                 0.0060                 0.0127
 IR Inten    --      0.4467                 3.6011                 4.5090

                      4                      5                      6
                      A                      A                      A
 Frequencies --     97.6286                99.9990               120.1726
 Red. masses --      4.7912                 4.5597                 3.9766
 Frc consts  --      0.0269                 0.0269                 0.0338
 IR Inten    --      1.9262                 8.4711                 6.1179

                      7                      8                      9
                      A                      A                      A
 Frequencies --    146.0853               169.0447               176.4226
 Red. masses --      6.4115                 4.8772                 5.1454
 Frc consts  --      0.0806                 0.0821                 0.0944
 IR Inten    --      0.7160                16.9164                 7.2233

                     10                     11                     12
                      A                      A                      A
 Frequencies --    192.9280               213.9099               240.8599
 Red. masses --      6.9632                 1.2363                 2.8845
 Frc consts  --      0.1527                 0.0333                 0.0986
 IR Inten    --     19.3882               122.2899                23.9903

                     13                     14                     15
                      A                      A                      A
 Frequencies --    253.4201               262.5800               282.0422
 Red. masses --      1.4250                 2.8419                 1.1314
 Frc consts  --      0.0539                 0.1154                 0.0530
 IR Inten    --    105.0820                16.0380                38.5825

                     16                     17                     18
                      A                      A                      A
 Frequencies --    292.6573               320.8577               339.3567
 Red. masses --      5.9724                 1.5740                 2.1465
 Frc consts  --      0.3014                 0.0955                 0.1456
 IR Inten    --      7.2527                64.4204                23.6944

                     19                     20                     21
                      A                      A                      A
 Frequencies --    343.1670               374.8973               395.5562
 Red. masses --      4.6702                 1.2677                 3.5924
 Frc consts  --      0.3240                 0.1050                 0.3312
 IR Inten    --      0.7279                57.9344                24.8895

                     22                     23                     24
                      A                      A                      A
 Frequencies --    417.9753               460.0999               473.0472
 Red. masses --      5.6332                 1.9751                 3.3661
 Frc consts  --      0.5798                 0.2463                 0.4438
 IR Inten    --     14.6668                32.6859                11.1771

                     25                     26                     27
                      A                      A                      A
 Frequencies --    482.3404               503.7108               542.0679
 Red. masses --      1.8652                 4.4921                 4.0507
 Frc consts  --      0.2557                 0.6715                 0.7013
 IR Inten    --     93.6817                 2.8092                18.7978

                     28                     29                     30
                      A                      A                      A
 Frequencies --    569.6821               581.4595               599.8275
 Red. masses --      1.2101                 2.5454                 1.3016
 Frc consts  --      0.2314                 0.5070                 0.2759
 IR Inten    --    109.9642                17.8988               264.7634

                     31                     32                     33
                      A                      A                      A
 Frequencies --    612.9348               705.0238               751.7926
 Red. masses --      2.8666                 1.1502                 3.4362
 Frc consts  --      0.6345                 0.3369                 1.1442
 IR Inten    --      8.5965               274.5578                88.8332

                     34                     35                     36
                      A                      A                      A
 Frequencies --    794.0221               904.7660               916.1619
 Red. masses --      1.2239                 1.3477                 1.8963
 Frc consts  --      0.4546                 0.6500                 0.9378
 IR Inten    --    160.1799                98.2977                35.8860

                     37                     38                     39
                      A                      A                      A
 Frequencies --    928.0772              1004.8667              1019.4689
 Red. masses --      2.5289                 3.6605                 2.7809
 Frc consts  --      1.2834                 2.1777                 1.7029
 IR Inten    --     66.3753                16.2039                10.4014

                     40                     41                     42
                      A                      A                      A
 Frequencies --   1052.0748              1056.5504              1058.3023
 Red. masses --      3.4876                 6.7716                 5.2026
 Frc consts  --      2.2744                 4.4537                 3.4331
 IR Inten    --     51.3126               171.1417               170.8375

                     43                     44                     45
                      A                      A                      A
 Frequencies --   1091.2916              1114.3556              1123.6040
 Red. masses --      2.8148                 2.8166                 2.5658
 Frc consts  --      1.9751                 2.0607                 1.9086
 IR Inten    --     71.1544                29.4208                50.9982

                     46                     47                     48
                      A                      A                      A
 Frequencies --   1146.6451              1150.0153              1162.2556
 Red. masses --      5.2713                 3.8063                 3.3565
 Frc consts  --      4.0834                 2.9659                 2.6714
 IR Inten    --     35.0032                81.6998                42.2831

                     49                     50                     51
                      A                      A                      A
 Frequencies --   1220.8631              1242.0114              1266.0753
 Red. masses --      1.2448                 1.2231                 1.1610
 Frc consts  --      1.0931                 1.1117                 1.0964
 IR Inten    --      5.5872                15.4490                24.2697

                     52                     53                     54
                      A                      A                      A
 Frequencies --   1279.4594              1300.5193              1328.5408
 Red. masses --      1.1336                 1.1283                 1.1809
 Frc consts  --      1.0933                 1.1244                 1.2280
 IR Inten    --     48.5240                 9.5241                32.9079

                     55                     56                     57
                      A                      A                      A
 Frequencies --   1339.3443              1379.0217              1391.9317
 Red. masses --      1.2007                 1.2054                 1.2593
 Frc consts  --      1.2690                 1.3506                 1.4375
 IR Inten    --     33.0741                 3.3796                39.5602

                     58                     59                     60
                      A                      A                      A
 Frequencies --   1397.4626              1407.9246              1412.3688
 Red. masses --      1.2293                 1.4191                 1.2563
 Frc consts  --      1.4144                 1.6573                 1.4765
 IR Inten    --     67.6629                16.4682                15.8062

                     61                     62                     63
                      A                      A                      A
 Frequencies --   1440.0776              1448.6267              1475.4875
 Red. masses --      1.3504                 1.4329                 1.4745
 Frc consts  --      1.6501                 1.7717                 1.8914
 IR Inten    --     34.8123                19.6175                18.5838

                     64                     65                     66
                      A                      A                      A
 Frequencies --   1496.4854              1528.7147              1552.3359
 Red. masses --      1.3497                 1.4599                 1.0851
 Frc consts  --      1.7808                 2.0101                 1.5406
 IR Inten    --     20.6095                56.6147                 3.1304

                     67                     68                     69
                      A                      A                      A
 Frequencies --   1718.6433              1719.9750              2995.4700
 Red. masses --      1.0768                 1.0758                 1.0820
 Frc consts  --      1.8739                 1.8751                 5.7203
 IR Inten    --     62.4725                54.4169                18.6195

                     70                     71                     72
                      A                      A                      A
 Frequencies --   3012.8843              3026.2954              3036.9843
 Red. masses --      1.0651                 1.0839                 1.0850
 Frc consts  --      5.6964                 5.8489                 5.8962
 IR Inten    --     74.6427                 2.4384                58.2299

                     73                     74                     75
                      A                      A                      A
 Frequencies --   3067.8695              3090.9115              3094.9151
 Red. masses --      1.0862                 1.0882                 1.0985
 Frc consts  --      6.0236                 6.1255                 6.1997
 IR Inten    --     11.6882                26.5818                42.0447

                     76                     77                     78
                      A                      A                      A
 Frequencies --   3454.3037              3530.4964              3580.1540
 Red. masses --      1.0673                 1.0651                 1.0565
 Frc consts  --      7.5032                 7.8220                 7.9786
 IR Inten    --    425.9485               205.9663               598.3075

                     79                     80                     81
                      A                      A                      A
 Frequencies --   3620.7398              3673.5586              3711.6433
 Red. masses --      1.0545                 1.0652                 1.0652
 Frc consts  --      8.1449                 8.4697                 8.6457
 IR Inten    --    248.9101               114.1772                34.8126

                     82                     83                     84
                      A                      A                      A
 Frequencies --   3773.0151              3799.1556              3812.6037
 Red. masses --      1.0669                 1.0710                 1.0740
 Frc consts  --      8.9483                 9.1076                 9.1980
 IR Inten    --     34.3263                67.2134                69.2834

 - Thermochemistry -
 -------------------
 Temperature   298.150 Kelvin.  Pressure   1.00000 Atm.
 Atom     1 has atomic number  1 and mass   1.00783

 Molecular mass:   216.08452 amu.
 Principal axes and moments of inertia in atomic units:
                           1         2         3
     Eigenvalues --  2313.792023705.706595489.94671
           X            0.99986  -0.01606   0.00484
           Y            0.01608   0.99986  -0.00355
           Z           -0.00478   0.00362   0.99998
 This molecule is an asymmetric top.
 Rotational symmetry number  1.
 Warning -- assumption of classical behavior for rotation
           may cause significant error
 Rotational temperatures (Kelvin)      0.03743     0.02337     0.01578
 Rotational constants (GHZ):           0.77999     0.48702     0.32874
 Zero-point vibrational energy     653781.7 (Joules/Mol)
                                  156.25757 (Kcal/Mol)
 Warning -- explicit consideration of  31 degrees of freedom as
           vibrations may cause significant error
 Vibrational temperatures:     39.17    60.30    91.73   140.47   143.88
          (Kelvin)            172.90   210.18   243.22   253.83   277.58
                              307.77   346.54   364.61   377.79   405.80
                              421.07   461.64   488.26   493.74   539.39
                              569.12   601.37   661.98   680.61   693.98
                              724.73   779.91   819.64   836.59   863.02
                              881.88  1014.37  1081.66  1142.42  1301.75
                             1318.15  1335.29  1445.78  1466.79  1513.70
                             1520.14  1522.66  1570.12  1603.31  1616.61
                             1649.76  1654.61  1672.22  1756.55  1786.98
                             1821.60  1840.85  1871.15  1911.47  1927.02
                             1984.10  2002.68  2010.63  2025.69  2032.08
                             2071.95  2084.25  2122.89  2153.11  2199.48
                             2233.46  2472.74  2474.66  4309.81  4334.86
                             4354.16  4369.54  4413.97  4447.13  4452.89
                             4969.97  5079.59  5151.04  5209.43  5285.42
                             5340.22  5428.52  5466.13  5485.48

 Zero-point correction=                           0.249012 (Hartree/Particle)
 Thermal correction to Energy=                    0.266630
 Thermal correction to Enthalpy=                  0.267574
 Thermal correction to Gibbs Free Energy=         0.203959
 Sum of electronic and zero-point Energies=           -839.749281
 Sum of electronic and thermal Energies=              -839.731663
 Sum of electronic and thermal Enthalpies=            -839.730719
 Sum of electronic and thermal Free Energies=         -839.794334

                     E (Thermal)             CV                S
                      KCal/Mol        Cal/Mol-Kelvin    Cal/Mol-Kelvin
 Total                  167.313             64.570            133.888
 Electronic               0.000              0.000              0.000
 Translational            0.889              2.981             42.015
 Rotational               0.889              2.981             32.221
 Vibrational            165.535             58.609             59.653
 Vibration     1          0.593              1.984              6.022
 Vibration     2          0.595              1.980              5.167
 Vibration     3          0.597              1.972              4.337
 Vibration     4          0.603              1.951              3.501
 Vibration     5          0.604              1.949              3.454
 Vibration     6          0.609              1.932              3.098
 Vibration     7          0.617              1.907              2.723
 Vibration     8          0.625              1.881              2.446
 Vibration     9          0.628              1.871              2.366
 Vibration    10          0.635              1.850              2.200
 Vibration    11          0.644              1.820              2.010
 Vibration    12          0.658              1.778              1.797
 Vibration    13          0.665              1.757              1.707
 Vibration    14          0.670              1.741              1.645
 Vibration    15          0.681              1.707              1.521
 Vibration    16          0.688              1.687              1.459
 Vibration    17          0.706              1.634              1.306
 Vibration    18          0.719              1.597              1.215
 Vibration    19          0.722              1.589              1.197
 Vibration    20          0.746              1.524              1.060
 Vibration    21          0.762              1.480              0.979
 Vibration    22          0.781              1.431              0.899
 Vibration    23          0.818              1.339              0.766
 Vibration    24          0.830              1.310              0.729
 Vibration    25          0.839              1.289              0.704
 Vibration    26          0.859              1.242              0.649
 Vibration    27          0.897              1.157              0.561
 Vibration    28          0.926              1.097              0.505
 Vibration    29          0.938              1.071              0.483
 Vibration    30          0.958              1.032              0.450
 Vibration    31          0.972              1.004              0.428

 Normal termination of Gaussian 09 at Sun Jan 15 13:06:31 2017.
