 Gaussian 09, Revision E.01,
 Gaussian 09:  ES64L-G09RevE.01 30-Nov-2015

 -----------------------------------------
 # opt=(MaxCycle=1000) freq B3LYP/6-31G(d)
 -----------------------------------------

 -----------------------------------------------
 ./boats/1/glo_1w_alpha_ts_boat1_B3LYP_631Gd.out
 -----------------------------------------------
 Symbolic Z-matrix:
 Charge =  0 Multiplicity = 1

 SCF Done:  E(RB3LYP) =  -839.973435682     A.U. after   14 cycles
 SCF Done:  E(RB3LYP) =  -839.909424764     A.U. after   13 cycles
 SCF Done:  E(RB3LYP) =  -839.981720261     A.U. after   11 cycles
 SCF Done:  E(RB3LYP) =  -839.986694627     A.U. after   11 cycles
 SCF Done:  E(RB3LYP) =  -839.989393689     A.U. after   11 cycles
 SCF Done:  E(RB3LYP) =  -839.993920019     A.U. after   11 cycles
 SCF Done:  E(RB3LYP) =  -839.995395722     A.U. after   11 cycles
 SCF Done:  E(RB3LYP) =  -839.985844388     A.U. after   12 cycles
 SCF Done:  E(RB3LYP) =  -839.996395516     A.U. after    9 cycles
 SCF Done:  E(RB3LYP) =  -839.996981552     A.U. after   11 cycles
 SCF Done:  E(RB3LYP) =  -839.998750305     A.U. after    9 cycles
 SCF Done:  E(RB3LYP) =  -839.998758103     A.U. after    9 cycles
 SCF Done:  E(RB3LYP) =  -839.998762281     A.U. after    9 cycles
 SCF Done:  E(RB3LYP) =  -839.998763789     A.U. after    7 cycles
 SCF Done:  E(RB3LYP) =  -839.998764355     A.U. after    7 cycles
 SCF Done:  E(RB3LYP) =  -839.998764561     A.U. after    7 cycles
 SCF Done:  E(RB3LYP) =  -839.998764716     A.U. after    7 cycles
 SCF Done:  E(RB3LYP) =  -839.998764838     A.U. after    7 cycles
 SCF Done:  E(RB3LYP) =  -839.998764887     A.U. after    6 cycles
 Optimization completed.
    -- Stationary point found.
 Normal termination of Gaussian 09 at Sun Jan 15 13:02:30 2017.

 --------------------------------------------------------------------
 #N Geom=AllCheck Guess=TCheck SCRF=Check GenChk RB3LYP/6-31G(d) Freq
 --------------------------------------------------------------------

 Structure from the checkpoint file:  "/scratch/10462948.yak.local/Gau-14951.chk"
 -----------------------------------------------
 ./boats/1/glo_1w_alpha_ts_boat1_B3LYP_631Gd.out
 -----------------------------------------------
 Charge =  0 Multiplicity = 1

                         Standard orientation:
 ---------------------------------------------------------------------
 Center     Atomic      Atomic             Coordinates (Angstroms)
 Number     Number       Type             X           Y           Z
 ---------------------------------------------------------------------
      1          1           0       -0.318528    1.242388    1.119137
      2          6           0       -0.096459    1.176955    0.044483
      3          6           0        0.749914   -1.232259    0.273890
      4          6           0       -1.373841   -0.674319   -0.972282
      5          6           0       -0.765875   -1.496857    0.168634
      6          8           0       -1.255589    0.742001   -0.673405
      7          6           0        1.091956    0.217892   -0.142635
      8          1           0       -0.913004   -2.557930   -0.063017
      9          1           0        1.355599    0.195965   -1.211941
     10          6           0        0.184377    2.578533   -0.503276
     11          1           0       -0.717509    3.194447   -0.391441
     12          1           0        0.416250    2.499384   -1.574570
     13          1           0        1.039424   -1.332017    1.334572
     14          8           0        1.283140    3.146226    0.225331
     15          1           0        1.541739    3.975992   -0.202545
     16          8           0       -1.438200   -1.141921    1.388084
     17          1           0       -1.199681   -1.794378    2.063762
     18          8           0        1.395497   -2.187284   -0.537792
     19          1           0        2.367374   -2.029090   -0.470613
     20          8           0        2.216108    0.649899    0.635174
     21          1           0        2.280571    1.622115    0.531243
     22          1           0       -0.799411   -0.902725   -1.879282
     23          8           0       -2.690375   -0.946256   -1.263902
     24          8           0       -3.768903    0.358687    0.930920
     25          1           0       -3.248803   -0.640541   -0.508389
     26          1           0       -3.263102    1.079018    0.517454
     27          1           0       -3.072482   -0.129036    1.413189
     28          8           0        3.993691   -1.324117   -0.063824
     29          1           0        3.584038   -0.481387    0.238007
     30          1           0        4.324140   -1.739762    0.746858
 ---------------------------------------------------------------------

 SCF Done:  E(RB3LYP) =  -839.998764887     A.U. after    1 cycles

 The electronic state is 1-A.
 Alpha  occ. eigenvalues --  -19.18842 -19.17807 -19.16522 -19.16204 -19.14952
 Alpha  occ. eigenvalues --  -19.13812 -19.13192 -19.12892 -10.28447 -10.25651
 Alpha  occ. eigenvalues --  -10.25292 -10.24853 -10.24435 -10.24108  -1.07141
 Alpha  occ. eigenvalues --   -1.05763  -1.03895  -1.03625  -1.01015  -1.00255
 Alpha  occ. eigenvalues --   -0.99989  -0.99206  -0.78403  -0.77434  -0.70091
 Alpha  occ. eigenvalues --   -0.64688  -0.63166  -0.58282  -0.56388  -0.55452
 Alpha  occ. eigenvalues --   -0.53111  -0.52593  -0.51500  -0.50490  -0.49701
 Alpha  occ. eigenvalues --   -0.49118  -0.46536  -0.45417  -0.44979  -0.42095
 Alpha  occ. eigenvalues --   -0.41649  -0.41203  -0.40849  -0.39462  -0.38279
 Alpha  occ. eigenvalues --   -0.36973  -0.35985  -0.35374  -0.33644  -0.32767
 Alpha  occ. eigenvalues --   -0.30756  -0.30636  -0.29855  -0.29517  -0.28905
 Alpha  occ. eigenvalues --   -0.27635  -0.26240  -0.25330
 Alpha virt. eigenvalues --    0.02920   0.04812   0.06829   0.08840   0.09565
 Alpha virt. eigenvalues --    0.10211   0.12313   0.13924   0.14467   0.14789
 Alpha virt. eigenvalues --    0.15199   0.15648   0.17125   0.17632   0.18612

 Mulliken charges:
               1
     1  H    0.146893
     2  C    0.123956
     3  C    0.124202
     4  C    0.344391
     5  C    0.060834
     6  O   -0.545398
     7  C    0.089505
     8  H    0.165587
     9  H    0.140108
    10  C   -0.058022
    11  H    0.153407
    12  H    0.145466
    13  H    0.112892
    14  O   -0.638855
    15  H    0.414250
    16  O   -0.651915
    17  H    0.410333
    18  O   -0.675233
    19  H    0.429527
    20  O   -0.689667
    21  H    0.434307
    22  H    0.151764
    23  O   -0.640614
    24  O   -0.803543
    25  H    0.415492
    26  H    0.401669
    27  H    0.423099
    28  O   -0.808976
    29  H    0.429848
    30  H    0.394693
 Sum of Mulliken charges =  -0.00000

 Dipole moment (field-independent basis, Debye):
    X=              3.7042    Y=              3.1617    Z=              2.5960  Tot=              5.5187
 Quadrupole moment (field-independent basis, Debye-Ang):
   XX=            -99.4807   YY=            -69.4946   ZZ=            -82.7582
   XY=              4.5748   XZ=              1.8238   YZ=            -13.3395

  Exact polarizability: 104.424  -0.227  99.912   2.024  -0.417  80.499
 Approx polarizability: 132.943  -1.135 129.835   3.319   3.496 122.849

                      1                      2                      3
                      A                      A                      A
 Frequencies --     38.4054                45.7630                73.2745
 Red. masses --      6.0477                 6.2367                 6.4414
 Frc consts  --      0.0053                 0.0077                 0.0204
 IR Inten    --      2.1581                 1.3311                 6.5394

                      4                      5                      6
                      A                      A                      A
 Frequencies --     78.3244               105.0827               153.2198
 Red. masses --      5.2629                 5.0965                 4.5287
 Frc consts  --      0.0190                 0.0332                 0.0626
 IR Inten    --      3.1758                 1.7800                17.5758

                      7                      8                      9
                      A                      A                      A
 Frequencies --    171.7532               181.0580               195.5624
 Red. masses --      4.0525                 4.1568                 5.4786
 Frc consts  --      0.0704                 0.0803                 0.1234
 IR Inten    --      2.9797                 3.6967                 3.0708

                     10                     11                     12
                      A                      A                      A
 Frequencies --    218.4806               244.7064               253.7219
 Red. masses --      5.7005                 1.4143                 5.1744
 Frc consts  --      0.1603                 0.0499                 0.1963
 IR Inten    --      4.2346                89.7151                16.5227

                     13                     14                     15
                      A                      A                      A
 Frequencies --    256.9166               293.9994               304.1528
 Red. masses --      2.7367                 1.6646                 1.8942
 Frc consts  --      0.1064                 0.0848                 0.1032
 IR Inten    --     10.8756                10.4286                71.5475

                     16                     17                     18
                      A                      A                      A
 Frequencies --    308.5389               315.6139               327.5056
 Red. masses --      1.3509                 2.9089                 1.2777
 Frc consts  --      0.0758                 0.1707                 0.0807
 IR Inten    --    105.6367                26.7241                57.7184

                     19                     20                     21
                      A                      A                      A
 Frequencies --    358.3295               366.9973               385.9321
 Red. masses --      2.4441                 1.5720                 3.2022
 Frc consts  --      0.1849                 0.1247                 0.2810
 IR Inten    --     26.7689                66.9225                 7.3611

                     22                     23                     24
                      A                      A                      A
 Frequencies --    403.9670               408.3355               440.1627
 Red. masses --      1.4265                 5.4451                 3.2754
 Frc consts  --      0.1372                 0.5349                 0.3739
 IR Inten    --     88.9130                 1.3297                19.4160

                     25                     26                     27
                      A                      A                      A
 Frequencies --    473.7526               498.3535               540.2934
 Red. masses --      5.1604                 3.9570                 3.4107
 Frc consts  --      0.6824                 0.5790                 0.5866
 IR Inten    --      3.5602                 2.6763                 1.4236

                     28                     29                     30
                      A                      A                      A
 Frequencies --    606.5098               638.9388               662.7390
 Red. masses --      3.2614                 1.2261                 1.4987
 Frc consts  --      0.7069                 0.2949                 0.3878
 IR Inten    --     27.5713                39.2545               147.0172

                     31                     32                     33
                      A                      A                      A
 Frequencies --    712.4125               776.9480               792.3210
 Red. masses --      2.4407                 3.5422                 1.1298
 Frc consts  --      0.7299                 1.2598                 0.4179
 IR Inten    --     98.4629                48.1463               301.1951

                     34                     35                     36
                      A                      A                      A
 Frequencies --    848.1703               857.2471               886.8059
 Red. masses --      2.6809                 1.2445                 1.0841
 Frc consts  --      1.1363                 0.5388                 0.5023
 IR Inten    --     39.3988               172.3851                86.1735

                     37                     38                     39
                      A                      A                      A
 Frequencies --    909.4711               960.9296              1008.7080
 Red. masses --      2.0204                 2.9001                 2.8548
 Frc consts  --      0.9846                 1.5778                 1.7114
 IR Inten    --      4.7919                40.8787                27.1175

                     40                     41                     42
                      A                      A                      A
 Frequencies --   1049.7759              1065.4149              1077.1810
 Red. masses --      2.8594                 3.7489                 6.6703
 Frc consts  --      1.8566                 2.5072                 4.5601
 IR Inten    --     20.4445                 1.7391               211.9471

                     43                     44                     45
                      A                      A                      A
 Frequencies --   1094.3275              1109.2185              1119.9384
 Red. masses --      5.0856                 4.7241                 3.8034
 Frc consts  --      3.5883                 3.4246                 2.8107
 IR Inten    --    234.0864                66.2946                14.7042

                     46                     47                     48
                      A                      A                      A
 Frequencies --   1133.4667              1152.8925              1203.9167
 Red. masses --      2.4615                 2.5761                 2.2242
 Frc consts  --      1.8632                 2.0174                 1.8994
 IR Inten    --     17.7471                12.0654                92.2872

                     49                     50                     51
                      A                      A                      A
 Frequencies --   1236.2894              1242.9260              1259.7816
 Red. masses --      1.2592                 1.2004                 1.2280
 Frc consts  --      1.1339                 1.0926                 1.1482
 IR Inten    --    117.5114                 5.3949                17.4332

                     52                     53                     54
                      A                      A                      A
 Frequencies --   1276.9939              1302.2473              1321.5657
 Red. masses --      1.3456                 1.2263                 1.1106
 Frc consts  --      1.2929                 1.2253                 1.1429
 IR Inten    --     24.1047                 5.4602                14.6126

                     55                     56                     57
                      A                      A                      A
 Frequencies --   1337.2645              1365.3466              1378.5224
 Red. masses --      1.1765                 1.2578                 1.2612
 Frc consts  --      1.2396                 1.3815                 1.4121
 IR Inten    --      7.4479                 9.5816                 6.9790

                     58                     59                     60
                      A                      A                      A
 Frequencies --   1384.7892              1412.4470              1438.5864
 Red. masses --      1.2427                 1.3406                 1.3781
 Frc consts  --      1.4041                 1.5757                 1.6803
 IR Inten    --     94.4072                20.6257                 2.8405

                     61                     62                     63
                      A                      A                      A
 Frequencies --   1450.1813              1454.0211              1485.5476
 Red. masses --      1.4962                 1.5085                 1.4958
 Frc consts  --      1.8539                 1.8791                 1.9449
 IR Inten    --     39.2656                 5.7138                36.3235

                     64                     65                     66
                      A                      A                      A
 Frequencies --   1513.3272              1516.7923              1548.2838
 Red. masses --      1.2794                 1.2045                 1.0906
 Frc consts  --      1.7263                 1.6327                 1.5404
 IR Inten    --     66.7548                61.2112                 4.4286

                     67                     68                     69
                      A                      A                      A
 Frequencies --   1728.7413              1744.2401              2971.5527
 Red. masses --      1.0745                 1.0819                 1.0834
 Frc consts  --      1.8919                 1.9393                 5.6362
 IR Inten    --     49.5478               194.4550                42.0956

                     70                     71                     72
                      A                      A                      A
 Frequencies --   3002.9493              3028.4397              3037.7758
 Red. masses --      1.0834                 1.0626                 1.0789
 Frc consts  --      5.7560                 5.7418                 5.8658
 IR Inten    --     15.8283                15.7123                54.3300

                     73                     74                     75
                      A                      A                      A
 Frequencies --   3058.8358              3077.4205              3082.0834
 Red. masses --      1.0864                 1.1092                 1.0867
 Frc consts  --      5.9887                 6.1892                 6.0820
 IR Inten    --     41.5060                52.6641                28.0762

                     76                     77                     78
                      A                      A                      A
 Frequencies --   3430.2381              3432.7464              3519.5330
 Red. masses --      1.0665                 1.0663                 1.0605
 Frc consts  --      7.3934                 7.4032                 7.7401
 IR Inten    --    464.6678               194.7251               818.7324

                     79                     80                     81
                      A                      A                      A
 Frequencies --   3580.5708              3644.3473              3760.9972
 Red. masses --      1.0652                 1.0519                 1.0672
 Frc consts  --      8.0459                 8.2311                 8.8942
 IR Inten    --    199.1674               200.8345                56.9900

                     82                     83                     84
                      A                      A                      A
 Frequencies --   3762.6673              3768.6456              3798.1152
 Red. masses --      1.0733                 1.0667                 1.0695
 Frc consts  --      8.9528                 8.9262                 9.0901
 IR Inten    --     35.2698                33.1329                64.1214

 - Thermochemistry -
 -------------------
 Temperature   298.150 Kelvin.  Pressure   1.00000 Atm.
 Atom     1 has atomic number  1 and mass   1.00783

 Molecular mass:   216.08452 amu.
 Principal axes and moments of inertia in atomic units:
                           1         2         3
     Eigenvalues --  2305.168513750.443305170.42446
           X            0.99997  -0.00695  -0.00289
           Y            0.00690   0.99981  -0.01827
           Z            0.00302   0.01825   0.99983
 This molecule is an asymmetric top.
 Rotational symmetry number  1.
 Warning -- assumption of classical behavior for rotation
           may cause significant error
 Rotational temperatures (Kelvin)      0.03757     0.02309     0.01675
 Rotational constants (GHZ):           0.78291     0.48121     0.34905
 Zero-point vibrational energy     654742.2 (Joules/Mol)
                                  156.48714 (Kcal/Mol)
 Warning -- explicit consideration of  28 degrees of freedom as
           vibrations may cause significant error
 Vibrational temperatures:     55.26    65.84   105.43   112.69   151.19
          (Kelvin)            220.45   247.11   260.50   281.37   314.34
                              352.08   365.05   369.65   423.00   437.61
                              443.92   454.10   471.21   515.56   528.03
                              555.27   581.22   587.50   633.30   681.62
                              717.02   777.36   872.63   919.29   953.53
                             1025.00  1117.85  1139.97  1220.33  1233.39
                             1275.91  1308.52  1382.56  1451.30  1510.39
                             1532.89  1549.82  1574.49  1595.92  1611.34
                             1630.80  1658.75  1732.17  1778.74  1788.29
                             1812.54  1837.31  1873.64  1901.44  1924.02
                             1964.43  1983.38  1992.40  2032.19  2069.80
                             2086.48  2092.01  2137.37  2177.34  2182.32
                             2227.63  2487.27  2509.57  4275.40  4320.57
                             4357.24  4370.68  4400.98  4427.72  4434.43
                             4935.34  4938.95  5063.82  5151.64  5243.40
                             5411.23  5413.63  5422.23  5464.63

 Zero-point correction=                           0.249378 (Hartree/Particle)
 Thermal correction to Energy=                    0.266583
 Thermal correction to Enthalpy=                  0.267527
 Thermal correction to Gibbs Free Energy=         0.205327
 Sum of electronic and zero-point Energies=           -839.749387
 Sum of electronic and thermal Energies=              -839.732182
 Sum of electronic and thermal Enthalpies=            -839.731238
 Sum of electronic and thermal Free Energies=         -839.793438

                     E (Thermal)             CV                S
                      KCal/Mol        Cal/Mol-Kelvin    Cal/Mol-Kelvin
 Total                  167.283             63.848            130.910
 Electronic               0.000              0.000              0.000
 Translational            0.889              2.981             42.015
 Rotational               0.889              2.981             32.169
 Vibrational            165.506             57.887             56.726
 Vibration     1          0.594              1.982              5.340
 Vibration     2          0.595              1.979              4.993
 Vibration     3          0.599              1.967              4.063
 Vibration     4          0.600              1.964              3.932
 Vibration     5          0.605              1.945              3.358
 Vibration     6          0.619              1.899              2.632
 Vibration     7          0.626              1.877              2.416
 Vibration     8          0.630              1.865              2.317
 Vibration     9          0.636              1.846              2.174
 Vibration    10          0.646              1.813              1.972
 Vibration    11          0.660              1.772              1.768
 Vibration    12          0.665              1.757              1.705
 Vibration    13          0.667              1.751              1.683
 Vibration    14          0.689              1.685              1.451
 Vibration    15          0.695              1.666              1.394
 Vibration    16          0.698              1.657              1.370
 Vibration    17          0.703              1.644              1.333
 Vibration    18          0.711              1.621              1.272
 Vibration    19          0.733              1.558              1.129
 Vibration    20          0.740              1.540              1.092
 Vibration    21          0.755              1.500              1.016
 Vibration    22          0.769              1.462              0.948
 Vibration    23          0.773              1.452              0.933
 Vibration    24          0.800              1.383              0.826
 Vibration    25          0.831              1.308              0.727
 Vibration    26          0.854              1.254              0.662
 Vibration    27          0.895              1.161              0.565
 Vibration    28          0.965              1.018              0.439

 Normal termination of Gaussian 09 at Sun Jan 15 13:20:09 2017.
