 Gaussian 09, Revision E.01,
 Gaussian 09:  ES64L-G09RevE.01 30-Nov-2015

 -----------------------------------------
 # opt=(MaxCycle=1000) freq B3LYP/6-31G(d)
 -----------------------------------------

 ------------------------------------------------
 ./boats/1/glo_1w_beta_ts_boat1_B3LYP_631Gd_r.out
 ------------------------------------------------
 Symbolic Z-matrix:
 Charge =  0 Multiplicity = 1

 SCF Done:  E(RB3LYP) =  -839.966020346     A.U. after   14 cycles
 SCF Done:  E(RB3LYP) =  -839.974389968     A.U. after   13 cycles
 SCF Done:  E(RB3LYP) =  -839.979757321     A.U. after   13 cycles
 SCF Done:  E(RB3LYP) =  -839.983104290     A.U. after   12 cycles
 SCF Done:  E(RB3LYP) =  -839.984867872     A.U. after   12 cycles
 SCF Done:  E(RB3LYP) =  -839.986039771     A.U. after   12 cycles
 SCF Done:  E(RB3LYP) =  -839.986753073     A.U. after   12 cycles
 SCF Done:  E(RB3LYP) =  -839.987192168     A.U. after   12 cycles
 SCF Done:  E(RB3LYP) =  -839.987476531     A.U. after   11 cycles
 SCF Done:  E(RB3LYP) =  -839.987784940     A.U. after   11 cycles
 SCF Done:  E(RB3LYP) =  -839.988156147     A.U. after   10 cycles
 SCF Done:  E(RB3LYP) =  -839.988166505     A.U. after    9 cycles
 SCF Done:  E(RB3LYP) =  -839.988172518     A.U. after    9 cycles
 SCF Done:  E(RB3LYP) =  -839.988175564     A.U. after    8 cycles
 SCF Done:  E(RB3LYP) =  -839.988177760     A.U. after    8 cycles
 SCF Done:  E(RB3LYP) =  -839.988179391     A.U. after    8 cycles
 SCF Done:  E(RB3LYP) =  -839.988180478     A.U. after    8 cycles
 SCF Done:  E(RB3LYP) =  -839.988181118     A.U. after    8 cycles
 SCF Done:  E(RB3LYP) =  -839.988181364     A.U. after    7 cycles
 Optimization completed.
    -- Stationary point found.
 Normal termination of Gaussian 09 at Sun Jan 15 12:41:59 2017.

 --------------------------------------------------------------------
 #N Geom=AllCheck Guess=TCheck SCRF=Check GenChk RB3LYP/6-31G(d) Freq
 --------------------------------------------------------------------

 Structure from the checkpoint file:  "/scratch/10462946.yak.local/Gau-27902.chk"
 ------------------------------------------------
 ./boats/1/glo_1w_beta_ts_boat1_B3LYP_631Gd_r.out
 ------------------------------------------------
 Charge =  0 Multiplicity = 1

                         Standard orientation:
 ---------------------------------------------------------------------
 Center     Atomic      Atomic             Coordinates (Angstroms)
 Number     Number       Type             X           Y           Z
 ---------------------------------------------------------------------
      1          1           0        0.435204    1.601332    1.324676
      2          6           0       -0.318405    1.244844    0.607287
      3          6           0        0.987553   -0.897712    0.083397
      4          6           0       -1.293302   -2.065455    0.022647
      5          6           0        0.157742   -2.118721   -0.392852
      6          8           0       -1.222741    0.430779    1.330324
      7          6           0        0.462187    0.458934   -0.478135
      8          1           0       -1.502268   -2.400151    1.054753
      9          1           0        0.195076   -2.128763   -1.493702
     10          1           0       -0.196858    0.265561   -1.339684
     11          6           0       -1.054819    2.466112    0.045122
     12          1           0       -1.570423    2.979799    0.867672
     13          1           0       -1.812680    2.124118   -0.676450
     14          8           0       -2.182053   -1.707915   -0.733874
     15          1           0        0.941222   -0.868447    1.182265
     16          8           0       -0.108064    3.336900   -0.587539
     17          1           0       -0.587940    4.025368   -1.071432
     18          8           0        0.709170   -3.293375    0.164765
     19          1           0        1.672969   -3.146410    0.107853
     20          8           0        2.291480   -1.238421   -0.345007
     21          1           0        2.937784   -0.655203    0.118699
     22          8           0        1.575594    1.247100   -0.917261
     23          1           0        1.210877    2.134588   -1.108874
     24          8           0       -3.797995    0.227966    0.288013
     25          1           0       -3.529729   -0.639903   -0.084730
     26          1           0       -2.128795    0.494123    0.946144
     27          8           0        3.723317    0.826785    0.741072
     28          1           0        3.056785    1.253422    0.155577
     29          1           0        3.458839    1.069956    1.641074
     30          1           0       -4.135454    0.724036   -0.472592
 ---------------------------------------------------------------------

 SCF Done:  E(RB3LYP) =  -839.988181364     A.U. after    1 cycles

 The electronic state is 1-A.
 Alpha  occ. eigenvalues --  -19.18961 -19.17010 -19.16157 -19.15854 -19.14773
 Alpha  occ. eigenvalues --  -19.14667 -19.14155 -19.13645 -10.29049 -10.25951
 Alpha  occ. eigenvalues --  -10.25027 -10.24522 -10.24448 -10.24169  -1.06533
 Alpha  occ. eigenvalues --   -1.06066  -1.04005  -1.02781  -1.02295  -1.01393
 Alpha  occ. eigenvalues --   -1.00567  -0.99519  -0.78188  -0.75436  -0.70035
 Alpha  occ. eigenvalues --   -0.64200  -0.61062  -0.58060  -0.55850  -0.54520
 Alpha  occ. eigenvalues --   -0.54146  -0.52917  -0.51833  -0.50459  -0.49350
 Alpha  occ. eigenvalues --   -0.47389  -0.46144  -0.45266  -0.44378  -0.43948
 Alpha  occ. eigenvalues --   -0.41971  -0.41254  -0.40450  -0.39444  -0.38793
 Alpha  occ. eigenvalues --   -0.38210  -0.35655  -0.35131  -0.34597  -0.33576
 Alpha  occ. eigenvalues --   -0.31046  -0.30746  -0.30581  -0.30065  -0.27358
 Alpha  occ. eigenvalues --   -0.27015  -0.26372  -0.26022
 Alpha virt. eigenvalues --   -0.04173   0.03179   0.04605   0.05724   0.09461
 Alpha virt. eigenvalues --    0.11484   0.12117   0.12535   0.13173   0.14449
 Alpha virt. eigenvalues --    0.15072   0.15543   0.16681   0.17365   0.18476

 Mulliken charges:
               1
     1  H    0.129084
     2  C    0.115442
     3  C    0.090530
     4  C    0.279414
     5  C    0.084977
     6  O   -0.679152
     7  C    0.105159
     8  H    0.148446
     9  H    0.151872
    10  H    0.126969
    11  C   -0.082516
    12  H    0.157777
    13  H    0.126270
    14  O   -0.445437
    15  H    0.139278
    16  O   -0.636766
    17  H    0.412844
    18  O   -0.654006
    19  H    0.416945
    20  O   -0.673147
    21  H    0.436435
    22  O   -0.667886
    23  H    0.432251
    24  O   -0.805158
    25  H    0.433161
    26  H    0.446044
    27  O   -0.806013
    28  H    0.427728
    29  H    0.392760
    30  H    0.396695
 Sum of Mulliken charges =  -0.00000

 Dipole moment (field-independent basis, Debye):
    X=             -2.8183    Y=              4.9747    Z=             -0.7599  Tot=              5.7678
 Quadrupole moment (field-independent basis, Debye-Ang):
   XX=            -91.1931   YY=            -76.0383   ZZ=            -82.9066
   XY=             -5.9615   XZ=             11.8245   YZ=             -5.1825

  Exact polarizability: 108.697  -3.319 101.774   4.448  -3.039  79.128
 Approx polarizability: 146.625  -3.469 128.006   8.961  -6.478 123.675

                      1                      2                      3
                      A                      A                      A
 Frequencies --     33.6981                42.7518                54.4442
 Red. masses --      5.9259                 5.5595                 5.9861
 Frc consts  --      0.0040                 0.0060                 0.0105
 IR Inten    --      2.6230                 1.2035                 0.4855

                      4                      5                      6
                      A                      A                      A
 Frequencies --     79.8830                83.0053               119.7866
 Red. masses --      6.2305                 5.1603                 5.6107
 Frc consts  --      0.0234                 0.0209                 0.0474
 IR Inten    --      1.1563                 2.0086                 1.2557

                      7                      8                      9
                      A                      A                      A
 Frequencies --    139.9528               153.3115               187.9842
 Red. masses --      5.7047                 4.6739                 4.0098
 Frc consts  --      0.0658                 0.0647                 0.0835
 IR Inten    --      8.6952                 4.2227                18.4239

                     10                     11                     12
                      A                      A                      A
 Frequencies --    188.7796               217.9096               233.9944
 Red. masses --      6.0787                 5.9738                 5.1884
 Frc consts  --      0.1276                 0.1671                 0.1674
 IR Inten    --     17.1123                23.5331                 3.3772

                     13                     14                     15
                      A                      A                      A
 Frequencies --    250.4471               258.1190               271.2441
 Red. masses --      2.9278                 4.4582                 1.2268
 Frc consts  --      0.1082                 0.1750                 0.0532
 IR Inten    --     27.5924                29.9103                83.9864

                     16                     17                     18
                      A                      A                      A
 Frequencies --    286.0903               304.7067               325.9941
 Red. masses --      1.3633                 2.1461                 1.4250
 Frc consts  --      0.0657                 0.1174                 0.0892
 IR Inten    --     89.9551                21.2753                31.6815

                     19                     20                     21
                      A                      A                      A
 Frequencies --    338.8091               351.7477               364.9193
 Red. masses --      2.7222                 1.1973                 2.6166
 Frc consts  --      0.1841                 0.0873                 0.2053
 IR Inten    --     34.2310                69.8510                18.0336

                     22                     23                     24
                      A                      A                      A
 Frequencies --    374.2662               400.2629               412.8519
 Red. masses --      3.3430                 2.8711                 1.8290
 Frc consts  --      0.2759                 0.2710                 0.1837
 IR Inten    --      9.4895                13.0829                20.8093

                     25                     26                     27
                      A                      A                      A
 Frequencies --    429.3411               450.1421               495.6316
 Red. masses --      4.0364                 4.3290                 5.7206
 Frc consts  --      0.4384                 0.5168                 0.8280
 IR Inten    --     24.6641                 3.4270                13.9305

                     28                     29                     30
                      A                      A                      A
 Frequencies --    551.3539               559.8834               587.9575
 Red. masses --      4.0737                 1.1261                 1.9305
 Frc consts  --      0.7296                 0.2080                 0.3932
 IR Inten    --      4.4300               112.9470                50.4165

                     31                     32                     33
                      A                      A                      A
 Frequencies --    602.0631               636.6932               663.4420
 Red. masses --      1.3953                 1.2344                 2.8757
 Frc consts  --      0.2980                 0.2948                 0.7458
 IR Inten    --    198.2852                96.0955                43.3865

                     34                     35                     36
                      A                      A                      A
 Frequencies --    725.9779               850.1497               902.2258
 Red. masses --      1.1206                 1.0737                 2.1329
 Frc consts  --      0.3480                 0.4572                 1.0229
 IR Inten    --    253.3196               308.9948                 0.9077

                     37                     38                     39
                      A                      A                      A
 Frequencies --    928.9179               960.0870               976.3963
 Red. masses --      2.0768                 1.2614                 2.6762
 Frc consts  --      1.0558                 0.6851                 1.5032
 IR Inten    --      5.6967               126.2598                28.3696

                     40                     41                     42
                      A                      A                      A
 Frequencies --   1040.9081              1061.6303              1070.1588
 Red. masses --      2.2410                 3.0873                 4.2431
 Frc consts  --      1.4306                 2.0501                 2.8631
 IR Inten    --     38.4589                13.9205                92.8481

                     43                     44                     45
                      A                      A                      A
 Frequencies --   1079.2557              1099.0904              1110.7550
 Red. masses --      3.0133                 5.1058                 3.6060
 Frc consts  --      2.0680                 3.6340                 2.6213
 IR Inten    --     80.5574                79.6496                81.9065

                     46                     47                     48
                      A                      A                      A
 Frequencies --   1132.8584              1144.1345              1161.3333
 Red. masses --      4.7110                 4.1561                 3.0740
 Frc consts  --      3.5622                 3.2055                 2.4427
 IR Inten    --     95.0554                42.0143                 7.4832

                     49                     50                     51
                      A                      A                      A
 Frequencies --   1229.4331              1245.7845              1265.1985
 Red. masses --      1.1958                 1.1956                 1.1803
 Frc consts  --      1.0649                 1.0932                 1.1131
 IR Inten    --     11.3471                11.3846                14.2496

                     52                     53                     54
                      A                      A                      A
 Frequencies --   1294.0546              1312.8241              1335.3952
 Red. masses --      1.1426                 1.1560                 1.1168
 Frc consts  --      1.1273                 1.1739                 1.1734
 IR Inten    --     64.9713                 3.5891                 3.1530

                     55                     56                     57
                      A                      A                      A
 Frequencies --   1354.3574              1370.2507              1399.7957
 Red. masses --      1.2270                 1.1755                 1.2158
 Frc consts  --      1.3260                 1.3003                 1.4036
 IR Inten    --     36.0996                30.6886                72.3555

                     58                     59                     60
                      A                      A                      A
 Frequencies --   1405.1656              1413.3584              1446.7294
 Red. masses --      1.1902                 1.2896                 1.4811
 Frc consts  --      1.3847                 1.5177                 1.8265
 IR Inten    --     32.2578                 1.4720                 8.2358

                     61                     62                     63
                      A                      A                      A
 Frequencies --   1459.9067              1477.9110              1490.0080
 Red. masses --      1.4129                 1.2362                 1.2634
 Frc consts  --      1.7743                 1.5908                 1.6527
 IR Inten    --      5.7784                 5.7226                83.4775

                     64                     65                     66
                      A                      A                      A
 Frequencies --   1495.7994              1550.4489              1717.0781
 Red. masses --      1.3772                 1.0890                 1.0751
 Frc consts  --      1.8155                 1.5424                 1.8676
 IR Inten    --     94.4896                 3.0345                66.1760

                     67                     68                     69
                      A                      A                      A
 Frequencies --   1731.7159              1794.3223              2996.2362
 Red. masses --      1.0817                 8.7121                 1.0830
 Frc consts  --      1.9112                16.5263                 5.7283
 IR Inten    --     64.6725               154.3911                 8.0480

                     70                     71                     72
                      A                      A                      A
 Frequencies --   3008.9089              3010.8263              3012.2611
 Red. masses --      1.0801                 1.0726                 1.0797
 Frc consts  --      5.7613                 5.7285                 5.7723
 IR Inten    --      0.6997                25.1624                19.6833

                     73                     74                     75
                      A                      A                      A
 Frequencies --   3024.0811              3031.1896              3067.0394
 Red. masses --      1.0846                 1.0836                 1.1048
 Frc consts  --      5.8438                 5.8660                 6.1232
 IR Inten    --     66.0897                96.3946                59.9380

                     76                     77                     78
                      A                      A                      A
 Frequencies --   3430.7168              3444.9487              3529.9311
 Red. masses --      1.0671                 1.0695                 1.0593
 Frc consts  --      7.3996                 7.4778                 7.7769
 IR Inten    --    282.6097               462.4283               742.8276

                     79                     80                     81
                      A                      A                      A
 Frequencies --   3564.7068              3606.0710              3652.4948
 Red. masses --      1.0574                 1.0653                 1.0642
 Frc consts  --      7.9164                 8.1618                 8.3650
 IR Inten    --    399.1559               240.8620                65.4509

                     82                     83                     84
                      A                      A                      A
 Frequencies --   3765.6287              3797.5970              3804.8052
 Red. masses --      1.0667                 1.0699                 1.0705
 Frc consts  --      8.9122                 9.0912                 9.1308
 IR Inten    --     29.4169                50.6849                66.0004

 - Thermochemistry -
 -------------------
 Temperature   298.150 Kelvin.  Pressure   1.00000 Atm.
 Atom     1 has atomic number  1 and mass   1.00783

 Molecular mass:   216.08452 amu.
 Principal axes and moments of inertia in atomic units:
                           1         2         3
     Eigenvalues --  2950.694523235.286475519.70069
           X            0.99640  -0.08439   0.00851
           Y            0.08442   0.99642  -0.00381
           Z           -0.00816   0.00451   0.99996
 This molecule is an asymmetric top.
 Rotational symmetry number  1.
 Warning -- assumption of classical behavior for rotation
           may cause significant error
 Rotational temperatures (Kelvin)      0.02935     0.02677     0.01569
 Rotational constants (GHZ):           0.61163     0.55783     0.32696
 Zero-point vibrational energy     647373.1 (Joules/Mol)
                                  154.72588 (Kcal/Mol)
 Warning -- explicit consideration of  31 degrees of freedom as
           vibrations may cause significant error
 Vibrational temperatures:     48.48    61.51    78.33   114.93   119.43
          (Kelvin)            172.35   201.36   220.58   270.47   271.61
                              313.52   336.67   360.34   371.38   390.26
                              411.62   438.40   469.03   487.47   506.09
                              525.04   538.48   575.89   594.00   617.73
                              647.65   713.10   793.27   805.55   845.94
                              866.23   916.06   954.54  1044.52  1223.17
                             1298.10  1336.50  1381.35  1404.81  1497.63
                             1527.45  1539.72  1552.81  1581.34  1598.13
                             1629.93  1646.15  1670.90  1768.88  1792.40
                             1820.34  1861.85  1888.86  1921.33  1948.62
                             1971.48  2013.99  2021.72  2033.50  2081.52
                             2100.48  2126.38  2143.79  2152.12  2230.75
                             2470.49  2491.55  2581.63  4310.91  4329.14
                             4331.90  4333.97  4350.97  4361.20  4412.78
                             4936.03  4956.51  5078.78  5128.81  5188.33
                             5255.12  5417.89  5463.89  5474.26

 Zero-point correction=                           0.246571 (Hartree/Particle)
 Thermal correction to Energy=                    0.264835
 Thermal correction to Enthalpy=                  0.265780
 Thermal correction to Gibbs Free Energy=         0.200798
 Sum of electronic and zero-point Energies=           -839.741610
 Sum of electronic and thermal Energies=              -839.723346
 Sum of electronic and thermal Enthalpies=            -839.722402
 Sum of electronic and thermal Free Energies=         -839.787383

                     E (Thermal)             CV                S
                      KCal/Mol        Cal/Mol-Kelvin    Cal/Mol-Kelvin
 Total                  166.187             66.227            136.765
 Electronic               0.000              0.000              0.000
 Translational            0.889              2.981             42.015
 Rotational               0.889              2.981             32.333
 Vibrational            164.409             60.265             62.417
 Vibration     1          0.594              1.983              5.599
 Vibration     2          0.595              1.980              5.127
 Vibration     3          0.596              1.976              4.649
 Vibration     4          0.600              1.963              3.894
 Vibration     5          0.600              1.961              3.819
 Vibration     6          0.609              1.933              3.104
 Vibration     7          0.615              1.913              2.805
 Vibration     8          0.619              1.899              2.631
 Vibration     9          0.633              1.856              2.248
 Vibration    10          0.633              1.855              2.240
 Vibration    11          0.646              1.814              1.976
 Vibration    12          0.654              1.789              1.848
 Vibration    13          0.663              1.762              1.727
 Vibration    14          0.667              1.749              1.674
 Vibration    15          0.675              1.726              1.588
 Vibration    16          0.684              1.700              1.497
 Vibration    17          0.696              1.665              1.391
 Vibration    18          0.710              1.624              1.280
 Vibration    19          0.719              1.598              1.218
 Vibration    20          0.728              1.572              1.158
 Vibration    21          0.738              1.544              1.101
 Vibration    22          0.745              1.525              1.062
 Vibration    23          0.766              1.470              0.962
 Vibration    24          0.777              1.442              0.917
 Vibration    25          0.791              1.406              0.861
 Vibration    26          0.809              1.361              0.795
 Vibration    27          0.851              1.260              0.669
 Vibration    28          0.907              1.137              0.541
 Vibration    29          0.916              1.118              0.524
 Vibration    30          0.945              1.057              0.471
 Vibration    31          0.960              1.027              0.446

 Normal termination of Gaussian 09 at Sun Jan 15 12:58:46 2017.
