 Gaussian 09, Revision E.01,
 Gaussian 09:  ES64L-G09RevE.01 30-Nov-2015

 -----------------------------------------
 # opt=(MaxCycle=1000) freq B3LYP/6-31G(d)
 -----------------------------------------

 ------------------------------------------------
 ./boats/1/glo_2w_beta_ts_boat1_B3LYP_631Gd_r.out
 ------------------------------------------------
 Symbolic Z-matrix:
 Charge =  0 Multiplicity = 1

 SCF Done:  E(RB3LYP) =  -839.970537682     A.U. after   14 cycles
 SCF Done:  E(RB3LYP) =  -839.974432746     A.U. after   13 cycles
 SCF Done:  E(RB3LYP) =  -839.979834153     A.U. after   13 cycles
 SCF Done:  E(RB3LYP) =  -839.985814579     A.U. after   13 cycles
 SCF Done:  E(RB3LYP) =  -839.988961811     A.U. after   13 cycles
 SCF Done:  E(RB3LYP) =  -839.990159480     A.U. after   12 cycles
 SCF Done:  E(RB3LYP) =  -839.991051357     A.U. after   13 cycles
 SCF Done:  E(RB3LYP) =  -839.992085052     A.U. after   13 cycles
 SCF Done:  E(RB3LYP) =  -839.992918557     A.U. after   13 cycles
 SCF Done:  E(RB3LYP) =  -839.993296421     A.U. after   12 cycles
 SCF Done:  E(RB3LYP) =  -840.001060319     A.U. after    9 cycles
 SCF Done:  E(RB3LYP) =  -840.001066969     A.U. after    9 cycles
 SCF Done:  E(RB3LYP) =  -840.001070943     A.U. after    8 cycles
 SCF Done:  E(RB3LYP) =  -840.001074028     A.U. after    8 cycles
 SCF Done:  E(RB3LYP) =  -840.001076464     A.U. after    8 cycles
 SCF Done:  E(RB3LYP) =  -840.001078588     A.U. after    8 cycles
 SCF Done:  E(RB3LYP) =  -840.001079032     A.U. after    7 cycles
 SCF Done:  E(RB3LYP) =  -840.001079261     A.U. after    7 cycles
 SCF Done:  E(RB3LYP) =  -840.001079418     A.U. after    7 cycles
 Optimization completed.
    -- Stationary point found.
 Normal termination of Gaussian 09 at Sun Jan 15 13:26:48 2017.

 --------------------------------------------------------------------
 #N Geom=AllCheck Guess=TCheck SCRF=Check GenChk RB3LYP/6-31G(d) Freq
 --------------------------------------------------------------------

 Structure from the checkpoint file:  "/scratch/10462943.yak.local/Gau-18655.chk"
 ------------------------------------------------
 ./boats/1/glo_2w_beta_ts_boat1_B3LYP_631Gd_r.out
 ------------------------------------------------
 Charge =  0 Multiplicity = 1

                         Standard orientation:
 ---------------------------------------------------------------------
 Center     Atomic      Atomic             Coordinates (Angstroms)
 Number     Number       Type             X           Y           Z
 ---------------------------------------------------------------------
      1          1           0        1.864672   -1.398125    1.211477
      2          6           0        1.659222   -0.461885    0.678532
      3          6           0       -0.763926   -1.206804    0.511382
      4          6           0       -2.558338    0.414248   -0.147370
      5          6           0       -2.102262   -1.013139   -0.286470
      6          8           0        1.337409    0.506336    1.655806
      7          6           0        0.459797   -0.700134   -0.267167
      8          1           0       -3.317477    0.582267    0.642865
      9          1           0       -1.907735   -1.229287   -1.348624
     10          1           0        0.211004    0.254509   -0.755109
     11          6           0        2.928811   -0.033391   -0.068079
     12          1           0        3.717179    0.159308    0.670970
     13          1           0        2.732644    0.897953   -0.617348
     14          8           0       -2.105197    1.335584   -0.807299
     15          1           0       -0.827594   -0.695325    1.475456
     16          8           0        3.326173   -1.087575   -0.966221
     17          1           0        4.002320   -0.742228   -1.568036
     18          8           0       -3.099782   -1.848187    0.254220
     19          1           0       -2.605563   -2.618187    0.599366
     20          8           0       -0.625617   -2.594757    0.782176
     21          1           0       -0.137902   -2.932207    0.000436
     22          8           0        0.716776   -1.704302   -1.254058
     23          1           0        1.675108   -1.669812   -1.455243
     24          8           0        1.253679    2.947735    0.355429
     25          1           0       -1.747065    3.089155   -0.408097
     26          1           0        1.237789    1.379766    1.202298
     27          1           0        1.604684    3.581473    0.998887
     28          8           0       -1.231864    3.915560   -0.285411
     29          1           0        0.353997    3.298466    0.127762
     30          1           0       -1.168484    4.285759   -1.179174
 ---------------------------------------------------------------------

 SCF Done:  E(RB3LYP) =  -840.001079418     A.U. after    1 cycles

 The electronic state is 1-A.
 Alpha  occ. eigenvalues --  -19.17829 -19.17482 -19.16071 -19.15458 -19.14684
 Alpha  occ. eigenvalues --  -19.14580 -19.14166 -19.12539 -10.29513 -10.24307
 Alpha  occ. eigenvalues --  -10.24286 -10.23840 -10.23529 -10.23246  -1.07134
 Alpha  occ. eigenvalues --   -1.05067  -1.04079  -1.02092  -1.01825  -1.00692
 Alpha  occ. eigenvalues --   -1.00018  -0.99510  -0.77515  -0.74474  -0.69805
 Alpha  occ. eigenvalues --   -0.63364  -0.60214  -0.58661  -0.54418  -0.54114
 Alpha  occ. eigenvalues --   -0.52904  -0.52600  -0.51360  -0.49605  -0.48315
 Alpha  occ. eigenvalues --   -0.47392  -0.46724  -0.44858  -0.44391  -0.43276
 Alpha  occ. eigenvalues --   -0.41204  -0.40765  -0.40071  -0.39500  -0.38842
 Alpha  occ. eigenvalues --   -0.37751  -0.35702  -0.34152  -0.33685  -0.32317
 Alpha  occ. eigenvalues --   -0.31558  -0.30513  -0.29726  -0.29187  -0.27948
 Alpha  occ. eigenvalues --   -0.27299  -0.26323  -0.25114
 Alpha virt. eigenvalues --   -0.04951   0.04557   0.05375   0.08638   0.08980
 Alpha virt. eigenvalues --    0.12326   0.12545   0.13438   0.14188   0.14778
 Alpha virt. eigenvalues --    0.15377   0.15865   0.17613   0.18243   0.18905

 Mulliken charges:
               1
     1  H    0.149814
     2  C    0.107245
     3  C    0.091370
     4  C    0.247022
     5  C    0.077657
     6  O   -0.675573
     7  C    0.089483
     8  H    0.147201
     9  H    0.161780
    10  H    0.139385
    11  C   -0.086305
    12  H    0.150000
    13  H    0.154872
    14  O   -0.421922
    15  H    0.170427
    16  O   -0.638903
    17  H    0.409347
    18  O   -0.657637
    19  H    0.416647
    20  O   -0.654986
    21  H    0.418249
    22  O   -0.692277
    23  H    0.434952
    24  O   -0.827318
    25  H    0.434883
    26  H    0.429694
    27  H    0.396369
    28  O   -0.803360
    29  H    0.430328
    30  H    0.401556
 Sum of Mulliken charges =  -0.00000

 Dipole moment (field-independent basis, Debye):
    X=              2.5595    Y=              2.6695    Z=             -2.4025  Tot=              4.4102
 Quadrupole moment (field-independent basis, Debye-Ang):
   XX=            -76.3692   YY=            -78.3780   ZZ=            -84.4497
   XY=             -0.2981   XZ=             -4.7547   YZ=             -1.0919

  Exact polarizability: 104.930   0.648 106.316  -3.906  -2.656  79.275
 Approx polarizability: 127.499   0.543 147.274  -6.898  -7.188 121.398

                      1                      2                      3
                      A                      A                      A
 Frequencies --     35.5889                42.8827                61.8769
 Red. masses --      5.3916                 6.5481                 6.7282
 Frc consts  --      0.0040                 0.0071                 0.0152
 IR Inten    --      0.1237                 0.5589                 1.1367

                      4                      5                      6
                      A                      A                      A
 Frequencies --     68.0668                73.4802                78.3976
 Red. masses --      7.7420                 6.0914                 5.3437
 Frc consts  --      0.0211                 0.0194                 0.0194
 IR Inten    --      0.6016                 1.6178                 6.8060

                      7                      8                      9
                      A                      A                      A
 Frequencies --    107.0099               144.9416               155.2505
 Red. masses --      5.2222                 4.7296                 2.8758
 Frc consts  --      0.0352                 0.0585                 0.0408
 IR Inten    --      6.4479                 4.6029                 2.2863

                     10                     11                     12
                      A                      A                      A
 Frequencies --    184.2761               193.6993               223.7162
 Red. masses --      4.9309                 4.4514                 5.0321
 Frc consts  --      0.0987                 0.0984                 0.1484
 IR Inten    --      8.6972                19.7520                 9.5234

                     13                     14                     15
                      A                      A                      A
 Frequencies --    257.1426               263.5544               281.4508
 Red. masses --      3.6643                 1.1532                 1.9830
 Frc consts  --      0.1428                 0.0472                 0.0926
 IR Inten    --     26.2820                92.5607                50.3529

                     16                     17                     18
                      A                      A                      A
 Frequencies --    292.0590               304.1278               326.6976
 Red. masses --      1.6500                 4.1980                 3.5040
 Frc consts  --      0.0829                 0.2288                 0.2203
 IR Inten    --     38.3317                15.0146                44.3885

                     19                     20                     21
                      A                      A                      A
 Frequencies --    339.6059               353.0051               370.7041
 Red. masses --      1.5255                 3.1060                 1.4627
 Frc consts  --      0.1037                 0.2280                 0.1184
 IR Inten    --    106.9306                 6.2802                42.8124

                     22                     23                     24
                      A                      A                      A
 Frequencies --    396.1509               408.1720               431.0374
 Red. masses --      3.3287                 3.4934                 1.6132
 Frc consts  --      0.3078                 0.3429                 0.1766
 IR Inten    --     12.1358                 8.2083                20.7699

                     25                     26                     27
                      A                      A                      A
 Frequencies --    434.2877               458.6940               495.8138
 Red. masses --      2.6411                 2.2987                 4.2754
 Frc consts  --      0.2935                 0.2850                 0.6193
 IR Inten    --     38.5462                 5.5531                 1.8364

                     28                     29                     30
                      A                      A                      A
 Frequencies --    536.9861               552.6436               619.3872
 Red. masses --      1.1415                 5.2339                 1.9623
 Frc consts  --      0.1939                 0.9418                 0.4436
 IR Inten    --     48.5973                11.2367                44.5549

                     31                     32                     33
                      A                      A                      A
 Frequencies --    635.3764               709.6716               718.3194
 Red. masses --      1.6117                 1.2054                 1.0997
 Frc consts  --      0.3833                 0.3577                 0.3343
 IR Inten    --     27.5336               165.6117               179.8002

                     34                     35                     36
                      A                      A                      A
 Frequencies --    752.5394               789.8532               875.3684
 Red. masses --      2.5703                 1.0664                 3.2509
 Frc consts  --      0.8576                 0.3920                 1.4677
 IR Inten    --     66.9245                84.1204                11.2968

                     37                     38                     39
                      A                      A                      A
 Frequencies --    888.8597               952.7685               958.7747
 Red. masses --      2.2865                 1.2080                 1.8339
 Frc consts  --      1.0644                 0.6461                 0.9932
 IR Inten    --     14.9334               162.7924                59.7473

                     40                     41                     42
                      A                      A                      A
 Frequencies --   1020.1130              1038.4335              1055.9876
 Red. masses --      2.3251                 3.1021                 4.2910
 Frc consts  --      1.4255                 1.9709                 2.8192
 IR Inten    --     28.8071                26.7171               103.2889

                     43                     44                     45
                      A                      A                      A
 Frequencies --   1073.4226              1099.6907              1113.7650
 Red. masses --      2.9840                 3.7240                 4.9141
 Frc consts  --      2.0258                 2.6534                 3.5916
 IR Inten    --     14.8768                38.8782               201.3476

                     46                     47                     48
                      A                      A                      A
 Frequencies --   1123.2180              1143.7541              1158.7767
 Red. masses --      2.7210                 4.0120                 2.9610
 Frc consts  --      2.0226                 3.0923                 2.3426
 IR Inten    --     14.3832                55.7469                 7.9318

                     49                     50                     51
                      A                      A                      A
 Frequencies --   1231.6519              1242.3361              1255.7047
 Red. masses --      1.1785                 1.1956                 1.1556
 Frc consts  --      1.0533                 1.0872                 1.0736
 IR Inten    --     11.5369                10.3755                11.5141

                     52                     53                     54
                      A                      A                      A
 Frequencies --   1271.8473              1301.2119              1339.4614
 Red. masses --      1.3348                 1.1812                 1.1757
 Frc consts  --      1.2721                 1.1783                 1.2429
 IR Inten    --     21.7621                22.1121                49.6219

                     55                     56                     57
                      A                      A                      A
 Frequencies --   1352.1373              1369.7561              1386.9542
 Red. masses --      1.2063                 1.2710                 1.1981
 Frc consts  --      1.2994                 1.4050                 1.3579
 IR Inten    --     15.2110                16.6334               117.8323

                     58                     59                     60
                      A                      A                      A
 Frequencies --   1402.3293              1409.9676              1443.2562
 Red. masses --      1.2877                 1.2610                 1.4719
 Frc consts  --      1.4920                 1.4770                 1.8064
 IR Inten    --     12.8340                22.7991                40.6922

                     61                     62                     63
                      A                      A                      A
 Frequencies --   1459.7270              1473.3506              1489.9500
 Red. masses --      1.3925                 1.1961                 1.4490
 Frc consts  --      1.7482                 1.5298                 1.8953
 IR Inten    --      9.7947               111.1314                39.8325

                     64                     65                     66
                      A                      A                      A
 Frequencies --   1511.9223              1553.8812              1729.9209
 Red. masses --      1.1749                 1.0888                 1.0809
 Frc consts  --      1.5824                 1.5490                 1.9059
 IR Inten    --     79.2683                 3.8455               110.4703

                     67                     68                     69
                      A                      A                      A
 Frequencies --   1747.4852              1794.3995              2975.8603
 Red. masses --      1.0759                 9.3396                 1.0869
 Frc consts  --      1.9357                17.7182                 5.6708
 IR Inten    --     45.8220               181.2151                69.8697

                     70                     71                     72
                      A                      A                      A
 Frequencies --   3017.0871              3025.0659              3033.6411
 Red. masses --      1.0830                 1.0831                 1.0569
 Frc consts  --      5.8083                 5.8396                 5.7310
 IR Inten    --     18.7768                14.4836                32.2807

                     73                     74                     75
                      A                      A                      A
 Frequencies --   3067.5607              3086.3565              3113.5057
 Red. masses --      1.0919                 1.1040                 1.0867
 Frc consts  --      6.0535                 6.1959                 6.2066
 IR Inten    --     22.9726                63.1460                 9.2589

                     76                     77                     78
                      A                      A                      A
 Frequencies --   3348.4132              3433.7425              3560.3189
 Red. masses --      1.0644                 1.0652                 1.0656
 Frc consts  --      7.0310                 7.3999                 7.9586
 IR Inten    --    873.5882               414.2173               454.9965

                     79                     80                     81
                      A                      A                      A
 Frequencies --   3575.3318              3579.5105              3623.2607
 Red. masses --      1.0567                 1.0645                 1.0642
 Frc consts  --      7.9585                 8.0361                 8.2316
 IR Inten    --    616.8066                19.1885                72.6837

                     82                     83                     84
                      A                      A                      A
 Frequencies --   3763.1889              3795.2673              3797.3719
 Red. masses --      1.0667                 1.0672                 1.0703
 Frc consts  --      8.9002                 9.0572                 9.0936
 IR Inten    --     25.2571                42.5206                94.6710

 - Thermochemistry -
 -------------------
 Temperature   298.150 Kelvin.  Pressure   1.00000 Atm.
 Atom     1 has atomic number  1 and mass   1.00783

 Molecular mass:   216.08452 amu.
 Principal axes and moments of inertia in atomic units:
                           1         2         3
     Eigenvalues --  3208.365603505.644095745.01492
           X            0.99987   0.01570  -0.00410
           Y           -0.01570   0.99988   0.00004
           Z            0.00410   0.00003   0.99999
 This molecule is an asymmetric top.
 Rotational symmetry number  1.
 Warning -- assumption of classical behavior for rotation
           may cause significant error
 Rotational temperatures (Kelvin)      0.02700     0.02471     0.01508
 Rotational constants (GHZ):           0.56251     0.51481     0.31414
 Zero-point vibrational energy     646953.2 (Joules/Mol)
                                  154.62553 (Kcal/Mol)
 Warning -- explicit consideration of  30 degrees of freedom as
           vibrations may cause significant error
 Vibrational temperatures:     51.20    61.70    89.03    97.93   105.72
          (Kelvin)            112.80   153.96   208.54   223.37   265.13
                              278.69   321.88   369.97   379.20   404.94
                              420.21   437.57   470.04   488.62   507.89
                              533.36   569.97   587.27   620.17   624.84
                              659.96   713.36   772.60   795.13   891.16
                              914.16  1021.06  1033.50  1082.74  1136.42
                             1259.46  1278.87  1370.82  1379.46  1467.71
                             1494.07  1519.33  1544.41  1582.21  1602.46
                             1616.06  1645.60  1667.22  1772.07  1787.44
                             1806.68  1829.90  1872.15  1927.18  1945.42
                             1970.77  1995.52  2017.64  2028.63  2076.52
                             2100.22  2119.82  2143.70  2175.32  2235.69
                             2488.97  2514.24  2581.74  4281.59  4340.91
                             4352.39  4364.73  4413.53  4440.57  4479.63
                             4817.61  4940.38  5122.50  5144.10  5150.11
                             5213.06  5414.38  5460.54  5463.56

 Zero-point correction=                           0.246411 (Hartree/Particle)
 Thermal correction to Energy=                    0.264822
 Thermal correction to Enthalpy=                  0.265767
 Thermal correction to Gibbs Free Energy=         0.199845
 Sum of electronic and zero-point Energies=           -839.754668
 Sum of electronic and thermal Energies=              -839.736257
 Sum of electronic and thermal Enthalpies=            -839.735313
 Sum of electronic and thermal Free Energies=         -839.801234

                     E (Thermal)             CV                S
                      KCal/Mol        Cal/Mol-Kelvin    Cal/Mol-Kelvin
 Total                  166.179             66.124            138.744
 Electronic               0.000              0.000              0.000
 Translational            0.889              2.981             42.015
 Rotational               0.889              2.981             32.535
 Vibrational            164.401             60.163             64.194
 Vibration     1          0.594              1.982              5.491
 Vibration     2          0.595              1.980              5.121
 Vibration     3          0.597              1.973              4.396
 Vibration     4          0.598              1.969              4.209
 Vibration     5          0.599              1.967              4.058
 Vibration     6          0.600              1.964              3.931
 Vibration     7          0.606              1.944              3.322
 Vibration     8          0.616              1.908              2.738
 Vibration     9          0.620              1.897              2.607
 Vibration    10          0.631              1.861              2.285
 Vibration    11          0.635              1.849              2.192
 Vibration    12          0.649              1.805              1.929
 Vibration    13          0.667              1.751              1.681
 Vibration    14          0.670              1.740              1.638
 Vibration    15          0.681              1.708              1.525
 Vibration    16          0.687              1.689              1.462
 Vibration    17          0.695              1.666              1.394
 Vibration    18          0.710              1.622              1.276
 Vibration    19          0.720              1.596              1.214
 Vibration    20          0.729              1.569              1.153
 Vibration    21          0.743              1.532              1.077
 Vibration    22          0.763              1.478              0.977
 Vibration    23          0.773              1.452              0.933
 Vibration    24          0.792              1.403              0.855
 Vibration    25          0.795              1.396              0.845
 Vibration    26          0.817              1.342              0.770
 Vibration    27          0.851              1.259              0.669
 Vibration    28          0.892              1.168              0.572
 Vibration    29          0.908              1.134              0.539
 Vibration    30          0.979              0.991              0.417

 Normal termination of Gaussian 09 at Sun Jan 15 13:42:46 2017.
