 Gaussian 09, Revision E.01,
 Gaussian 09:  ES64L-G09RevE.01 30-Nov-2015

 -------------------------
 # b3lyp/6-31g(d) opt freq
 -------------------------

 ----------------------------------
 glo_1w_beta_ircr_boat2_B3LYP_631Gd
 ----------------------------------
 Symbolic Z-matrix:
 Charge =  0 Multiplicity = 1

 SCF Done:  E(RB3LYP) =  -839.963853089     A.U. after   14 cycles
 SCF Done:  E(RB3LYP) =  -839.972057783     A.U. after   14 cycles
 SCF Done:  E(RB3LYP) =  -839.978310142     A.U. after   14 cycles
 SCF Done:  E(RB3LYP) =  -839.980824003     A.U. after   13 cycles
 SCF Done:  E(RB3LYP) =  -839.983500662     A.U. after   13 cycles
 SCF Done:  E(RB3LYP) =  -839.984766203     A.U. after   12 cycles
 SCF Done:  E(RB3LYP) =  -839.985461787     A.U. after   12 cycles
 SCF Done:  E(RB3LYP) =  -839.985561758     A.U. after   12 cycles
 SCF Done:  E(RB3LYP) =  -839.986088764     A.U. after   11 cycles
 SCF Done:  E(RB3LYP) =  -839.986257420     A.U. after   11 cycles
 SCF Done:  E(RB3LYP) =  -839.989043716     A.U. after   11 cycles
 SCF Done:  E(RB3LYP) =  -839.989124011     A.U. after   11 cycles
 SCF Done:  E(RB3LYP) =  -839.989187316     A.U. after   11 cycles
 SCF Done:  E(RB3LYP) =  -839.989235963     A.U. after   10 cycles
 SCF Done:  E(RB3LYP) =  -839.989255895     A.U. after   10 cycles
 SCF Done:  E(RB3LYP) =  -839.989261344     A.U. after    8 cycles
 SCF Done:  E(RB3LYP) =  -839.989262796     A.U. after    8 cycles
 SCF Done:  E(RB3LYP) =  -839.989263344     A.U. after    8 cycles
 SCF Done:  E(RB3LYP) =  -839.989263486     A.U. after    7 cycles
 Optimization completed.
    -- Stationary point found.
 Normal termination of Gaussian 09 at Sun Jan 15 22:26:10 2017.

 --------------------------------------------------------------------
 #N Geom=AllCheck Guess=TCheck SCRF=Check GenChk RB3LYP/6-31G(d) Freq
 --------------------------------------------------------------------

 Structure from the checkpoint file:  "/scratch/10464875.yak.local/Gau-30376.chk"
 ----------------------------------
 glo_1w_beta_ircr_boat2_B3LYP_631Gd
 ----------------------------------
 Charge =  0 Multiplicity = 1

                         Standard orientation:
 ---------------------------------------------------------------------
 Center     Atomic      Atomic             Coordinates (Angstroms)
 Number     Number       Type             X           Y           Z
 ---------------------------------------------------------------------
      1          6           0        2.036392   -0.613425   -1.155857
      2          8           0        0.517418    1.490873   -1.031572
      3          1           0        3.065513    1.880044    0.284697
      4          8           0        3.081975   -0.212164   -0.688222
      5          1           0        2.215129    1.168919    1.314897
      6          8           0        2.340624    2.054287    0.909118
      7          1           0        1.044806    1.867680   -0.279386
      8          6           0       -0.650075    0.256434    0.753235
      9          6           0       -0.734600    1.010047   -0.591994
     10          6           0       -1.723187    2.187634   -0.511321
     11          8           0       -3.072018    1.775367   -0.206770
     12          8           0       -1.926826   -0.326689    1.075571
     13          1           0        1.764501   -0.468438   -2.217914
     14          1           0       -2.604918    0.342607    0.830169
     15          1           0       -0.402769    0.996864    1.532921
     16          1           0       -1.077755    0.298776   -1.351247
     17          1           0       -1.688080    2.745987   -1.453822
     18          1           0       -1.435048    2.869278    0.296128
     19          1           0       -3.447650    1.380466   -1.010252
     20          8           0       -2.138400   -2.862789   -0.008562
     21          1           0       -2.235157   -1.974465    0.407053
     22          1           0       -2.165164   -3.492571    0.726661
     23          6           0        0.407569   -0.877042    0.892779
     24          1           0       -0.135718   -1.703321    1.369474
     25          6           0        1.033452   -1.487349   -0.391969
     26          1           0        1.627220   -2.348139   -0.035898
     27          8           0        1.487972   -0.489544    1.756008
     28          1           0        1.140364   -0.440857    2.660626
     29          8           0        0.052630   -1.872797   -1.325104
     30          1           0       -0.629585   -2.432970   -0.887080
 ---------------------------------------------------------------------

 SCF Done:  E(RB3LYP) =  -839.989263486     A.U. after    1 cycles

 The electronic state is 1-A.
 Alpha  occ. eigenvalues --  -19.18507 -19.18230 -19.16821 -19.15541 -19.14086
 Alpha  occ. eigenvalues --  -19.14056 -19.13873 -19.13646 -10.26905 -10.26217
 Alpha  occ. eigenvalues --  -10.25568 -10.24686 -10.24618 -10.24198  -1.06023
 Alpha  occ. eigenvalues --   -1.05244  -1.03693  -1.03296  -1.01855  -1.01666
 Alpha  occ. eigenvalues --   -1.00669  -0.99543  -0.77917  -0.74998  -0.70358
 Alpha  occ. eigenvalues --   -0.65301  -0.61954  -0.56995  -0.55650  -0.53817
 Alpha  occ. eigenvalues --   -0.53313  -0.51790  -0.51001  -0.50718  -0.50144
 Alpha  occ. eigenvalues --   -0.48218  -0.46269  -0.44829  -0.43597  -0.42480
 Alpha  occ. eigenvalues --   -0.42191  -0.41066  -0.39844  -0.39268  -0.38427
 Alpha  occ. eigenvalues --   -0.37801  -0.36918  -0.35533  -0.34799  -0.33764
 Alpha  occ. eigenvalues --   -0.32056  -0.30987  -0.30234  -0.29950  -0.28936
 Alpha  occ. eigenvalues --   -0.26455  -0.25772  -0.24200
 Alpha virt. eigenvalues --   -0.01456   0.03760   0.04569   0.05839   0.08486
 Alpha virt. eigenvalues --    0.09171   0.11837   0.12963   0.13046   0.14302
 Alpha virt. eigenvalues --    0.14978   0.16860   0.17407   0.18209   0.19627

 Mulliken charges:
               1
     1  C    0.263501
     2  O   -0.667220
     3  H    0.418737
     4  O   -0.435700
     5  H    0.435369
     6  O   -0.825755
     7  H    0.426036
     8  C    0.104763
     9  C    0.100246
    10  C   -0.085207
    11  O   -0.625837
    12  O   -0.692205
    13  H    0.140219
    14  H    0.431556
    15  H    0.125836
    16  H    0.156994
    17  H    0.162996
    18  H    0.161151
    19  H    0.409291
    20  O   -0.815559
    21  H    0.432506
    22  H    0.395308
    23  C    0.057098
    24  H    0.135126
    25  C    0.092672
    26  H    0.148616
    27  O   -0.623287
    28  H    0.408945
    29  O   -0.672611
    30  H    0.436416
 Sum of Mulliken charges =   0.00000

 Dipole moment (field-independent basis, Debye):
    X=             -3.2948    Y=             -1.0989    Z=              2.5389  Tot=              4.3023
 Quadrupole moment (field-independent basis, Debye-Ang):
   XX=            -88.2371   YY=            -83.1397   ZZ=            -79.2890
   XY=             -2.2797   XZ=              2.7903   YZ=             -9.6643

  Exact polarizability: 105.345   3.835  95.139   2.052  -2.674  86.360
 Approx polarizability: 144.586  11.401 126.108   6.219  -0.612 127.736

                      1                      2                      3
                      A                      A                      A
 Frequencies --     57.2791                65.3483                84.5030
 Red. masses --      6.0921                 6.1137                 6.1961
 Frc consts  --      0.0118                 0.0154                 0.0261
 IR Inten    --      0.3962                 2.3717                 1.0241

                      4                      5                      6
                      A                      A                      A
 Frequencies --    109.8014               121.5573               140.6539
 Red. masses --      6.7799                 5.0311                 8.1876
 Frc consts  --      0.0482                 0.0438                 0.0954
 IR Inten    --      2.2556                17.0929                 4.8539

                      7                      8                      9
                      A                      A                      A
 Frequencies --    165.9168               171.5991               177.9607
 Red. masses --      7.6314                 3.0060                 7.7391
 Frc consts  --      0.1238                 0.0522                 0.1444
 IR Inten    --      6.4996                 7.2168                10.5866

                     10                     11                     12
                      A                      A                      A
 Frequencies --    206.8308               222.1267               229.1022
 Red. masses --      5.7363                 5.8157                 2.7622
 Frc consts  --      0.1446                 0.1691                 0.0854
 IR Inten    --      9.6664                 3.5574                22.2801

                     13                     14                     15
                      A                      A                      A
 Frequencies --    243.5125               261.1829               272.9365
 Red. masses --      4.1515                 1.4071                 4.8295
 Frc consts  --      0.1450                 0.0566                 0.2120
 IR Inten    --     13.4194               148.8563                 4.1349

                     16                     17                     18
                      A                      A                      A
 Frequencies --    289.1139               302.1647               328.4100
 Red. masses --      2.5405                 1.2121                 3.1243
 Frc consts  --      0.1251                 0.0652                 0.1985
 IR Inten    --     30.4461                64.3211                24.7246

                     19                     20                     21
                      A                      A                      A
 Frequencies --    371.0818               378.9149               392.9564
 Red. masses --      3.2605                 1.4476                 1.6774
 Frc consts  --      0.2645                 0.1225                 0.1526
 IR Inten    --     26.7829                16.0012               146.9340

                     22                     23                     24
                      A                      A                      A
 Frequencies --    400.4114               415.2119               430.9129
 Red. masses --      2.1482                 2.5226                 3.8114
 Frc consts  --      0.2029                 0.2562                 0.4170
 IR Inten    --     50.8445                22.8454                 4.2580

                     25                     26                     27
                      A                      A                      A
 Frequencies --    436.7407               486.1229               510.6560
 Red. masses --      1.4153                 2.4195                 4.2638
 Frc consts  --      0.1591                 0.3369                 0.6551
 IR Inten    --    120.3409                12.1741                39.0640

                     28                     29                     30
                      A                      A                      A
 Frequencies --    539.5292               576.2260               585.8373
 Red. masses --      2.7012                 2.1069                 4.3173
 Frc consts  --      0.4633                 0.4122                 0.8730
 IR Inten    --     26.5464                53.1509                18.8400

                     31                     32                     33
                      A                      A                      A
 Frequencies --    681.7258               708.9167               710.9064
 Red. masses --      2.8243                 1.0811                 1.0938
 Frc consts  --      0.7734                 0.3201                 0.3257
 IR Inten    --      1.9738               362.1241                98.7803

                     34                     35                     36
                      A                      A                      A
 Frequencies --    802.7998               821.8602               893.2172
 Red. masses --      1.1713                 2.5765                 1.8482
 Frc consts  --      0.4448                 1.0254                 0.8688
 IR Inten    --     61.3673                 0.2000                13.9025

                     37                     38                     39
                      A                      A                      A
 Frequencies --    929.8024               952.7922               971.7663
 Red. masses --      1.0656                 1.1299                 1.9792
 Frc consts  --      0.5428                 0.6043                 1.1012
 IR Inten    --    205.7536               128.6782                 8.2130

                     40                     41                     42
                      A                      A                      A
 Frequencies --   1013.9225              1034.5899              1045.7308
 Red. masses --      3.1225                 3.2411                 4.3704
 Frc consts  --      1.8913                 2.0440                 2.8159
 IR Inten    --     58.7966                59.3388                60.2418

                     43                     44                     45
                      A                      A                      A
 Frequencies --   1073.9882              1080.8632              1101.6909
 Red. masses --      3.1130                 4.7457                 2.8766
 Frc consts  --      2.1155                 3.2666                 2.0571
 IR Inten    --    112.8725                35.0567                28.9689

                     46                     47                     48
                      A                      A                      A
 Frequencies --   1137.6280              1143.4686              1145.5120
 Red. masses --      3.6949                 3.6190                 3.1584
 Frc consts  --      2.8174                 2.7879                 2.4419
 IR Inten    --     27.5032                35.2861                44.0661

                     49                     50                     51
                      A                      A                      A
 Frequencies --   1187.0632              1252.7217              1301.6629
 Red. masses --      1.3078                 1.1073                 1.2414
 Frc consts  --      1.0858                 1.0238                 1.2393
 IR Inten    --     15.7515                21.3488                 3.5680

                     52                     53                     54
                      A                      A                      A
 Frequencies --   1303.0838              1335.1960              1343.1639
 Red. masses --      1.1573                 1.1895                 1.1550
 Frc consts  --      1.1579                 1.2495                 1.2277
 IR Inten    --     33.8484                 0.7645                29.0926

                     55                     56                     57
                      A                      A                      A
 Frequencies --   1351.9299              1383.0514              1394.2034
 Red. masses --      1.1682                 1.2843                 1.2650
 Frc consts  --      1.2580                 1.4474                 1.4488
 IR Inten    --     10.9256                20.5744                12.0379

                     58                     59                     60
                      A                      A                      A
 Frequencies --   1406.1121              1419.6097              1435.7617
 Red. masses --      1.1854                 1.2669                 1.3111
 Frc consts  --      1.3808                 1.5042                 1.5924
 IR Inten    --     17.4911                22.1991                73.1122

                     61                     62                     63
                      A                      A                      A
 Frequencies --   1443.0857              1484.7418              1498.3885
 Red. masses --      1.3411                 1.3885                 1.2517
 Frc consts  --      1.6455                 1.8035                 1.6558
 IR Inten    --      1.4859                22.7833               108.7200

                     64                     65                     66
                      A                      A                      A
 Frequencies --   1512.3329              1531.0863              1720.5452
 Red. masses --      1.1993                 1.1088                 1.0752
 Frc consts  --      1.6161                 1.5314                 1.8753
 IR Inten    --     20.8639                11.6081                43.0245

                     67                     68                     69
                      A                      A                      A
 Frequencies --   1735.5304              1819.9795              2967.1136
 Red. masses --      1.1259                 7.1339                 1.0814
 Frc consts  --      1.9980                13.9223                 5.6094
 IR Inten    --     97.8955               144.7618                48.1728

                     70                     71                     72
                      A                      A                      A
 Frequencies --   2977.7697              2996.5584              3040.8351
 Red. masses --      1.0835                 1.0880                 1.0850
 Frc consts  --      5.6604                 5.7560                 5.9111
 IR Inten    --     41.4727                62.4672                31.5230

                     73                     74                     75
                      A                      A                      A
 Frequencies --   3064.7149              3084.0527              3121.3890
 Red. masses --      1.0587                 1.0872                 1.1087
 Frc consts  --      5.8588                 6.0925                 6.3643
 IR Inten    --     32.3639                20.4571                30.7415

                     76                     77                     78
                      A                      A                      A
 Frequencies --   3327.5755              3441.3549              3497.5185
 Red. masses --      1.0703                 1.0658                 1.0664
 Frc consts  --      6.9826                 7.4369                 7.6858
 IR Inten    --    492.6093               297.3069               602.3053

                     79                     80                     81
                      A                      A                      A
 Frequencies --   3523.3131              3568.7105              3738.4660
 Red. masses --      1.0617                 1.0584                 1.0663
 Frc consts  --      7.7653                 7.9421                 8.7805
 IR Inten    --    438.5003               308.0971                30.2146

                     82                     83                     84
                      A                      A                      A
 Frequencies --   3741.1897              3762.6026              3805.6495
 Red. masses --      1.0666                 1.0680                 1.0693
 Frc consts  --      8.7954                 8.9083                 9.1246
 IR Inten    --     27.7659                67.1213                62.3188

 - Thermochemistry -
 -------------------
 Temperature   298.150 Kelvin.  Pressure   1.00000 Atm.
 Atom     1 has atomic number  6 and mass  12.00000

 Molecular mass:   216.08452 amu.
 Principal axes and moments of inertia in atomic units:
                           1         2         3
     Eigenvalues --  2562.731873334.718514459.09499
           X            0.99981   0.01767   0.00846
           Y           -0.01753   0.99972  -0.01606
           Z           -0.00874   0.01591   0.99984
 This molecule is an asymmetric top.
 Rotational symmetry number  1.
 Warning -- assumption of classical behavior for rotation
           may cause significant error
 Rotational temperatures (Kelvin)      0.03380     0.02597     0.01942
 Rotational constants (GHZ):           0.70423     0.54120     0.40473
 Zero-point vibrational energy     650432.6 (Joules/Mol)
                                  155.45713 (Kcal/Mol)
 Warning -- explicit consideration of  30 degrees of freedom as
           vibrations may cause significant error
 Vibrational temperatures:     82.41    94.02   121.58   157.98   174.89
          (Kelvin)            202.37   238.72   246.89   256.05   297.58
                              319.59   329.63   350.36   375.78   392.69
                              415.97   434.75   472.51   533.90   545.17
                              565.38   576.10   597.40   619.99   628.37
                              699.42   734.72   776.26   829.06   842.89
                              980.85  1019.97  1022.83  1155.05  1182.47
                             1285.14  1337.78  1370.85  1398.15  1458.81
                             1488.54  1504.57  1545.23  1555.12  1585.09
                             1636.79  1645.19  1648.13  1707.92  1802.38
                             1872.80  1874.84  1921.05  1932.51  1945.12
                             1989.90  2005.95  2023.08  2042.50  2065.74
                             2076.28  2136.21  2155.84  2175.91  2202.89
                             2475.48  2497.04  2618.54  4269.01  4284.34
                             4311.37  4375.08  4409.44  4437.26  4490.98
                             4787.63  4951.34  5032.14  5069.26  5134.57
                             5378.81  5382.73  5413.54  5475.47

 Zero-point correction=                           0.247737 (Hartree/Particle)
 Thermal correction to Energy=                    0.265297
 Thermal correction to Enthalpy=                  0.266241
 Thermal correction to Gibbs Free Energy=         0.204290
 Sum of electronic and zero-point Energies=           -839.741527
 Sum of electronic and thermal Energies=              -839.723967
 Sum of electronic and thermal Enthalpies=            -839.723022
 Sum of electronic and thermal Free Energies=         -839.784974

                     E (Thermal)             CV                S
                      KCal/Mol        Cal/Mol-Kelvin    Cal/Mol-Kelvin
 Total                  166.476             65.249            130.388
 Electronic               0.000              0.000              0.000
 Translational            0.889              2.981             42.015
 Rotational               0.889              2.981             32.011
 Vibrational            164.699             59.287             56.362
 Vibration     1          0.596              1.975              4.549
 Vibration     2          0.597              1.971              4.289
 Vibration     3          0.601              1.960              3.783
 Vibration     4          0.606              1.941              3.272
 Vibration     5          0.609              1.931              3.075
 Vibration     6          0.615              1.913              2.795
 Vibration     7          0.624              1.884              2.481
 Vibration     8          0.626              1.877              2.418
 Vibration     9          0.628              1.869              2.350
 Vibration    10          0.641              1.830              2.071
 Vibration    11          0.648              1.807              1.942
 Vibration    12          0.652              1.797              1.886
 Vibration    13          0.659              1.773              1.777
 Vibration    14          0.669              1.744              1.654
 Vibration    15          0.676              1.723              1.578
 Vibration    16          0.686              1.694              1.479
 Vibration    17          0.694              1.670              1.405
 Vibration    18          0.712              1.619              1.268
 Vibration    19          0.743              1.532              1.075
 Vibration    20          0.749              1.515              1.043
 Vibration    21          0.760              1.485              0.989
 Vibration    22          0.766              1.469              0.961
 Vibration    23          0.779              1.437              0.908
 Vibration    24          0.792              1.403              0.856
 Vibration    25          0.797              1.390              0.837
 Vibration    26          0.842              1.281              0.694
 Vibration    27          0.866              1.226              0.632
 Vibration    28          0.895              1.163              0.566
 Vibration    29          0.933              1.083              0.492
 Vibration    30          0.943              1.062              0.475

 Normal termination of Gaussian 09 at Sun Jan 15 23:01:38 2017.
