 Gaussian 09, Revision E.01,
 Gaussian 09:  ES64L-G09RevE.01 30-Nov-2015

 -------------------------
 # b3lyp/6-31g(d) opt freq
 -------------------------

 -----------------------------------
 glo_1w_alpha_ircr_boat2_B3LYP_631Gd
 -----------------------------------
 Symbolic Z-matrix:
 Charge =  0 Multiplicity = 1

 SCF Done:  E(RB3LYP) =  -839.969133432     A.U. after   14 cycles
 SCF Done:  E(RB3LYP) =  -839.974446935     A.U. after   14 cycles
 SCF Done:  E(RB3LYP) =  -839.980103495     A.U. after   13 cycles
 SCF Done:  E(RB3LYP) =  -839.984169797     A.U. after   13 cycles
 SCF Done:  E(RB3LYP) =  -839.986057289     A.U. after   12 cycles
 SCF Done:  E(RB3LYP) =  -839.986807013     A.U. after   12 cycles
 SCF Done:  E(RB3LYP) =  -839.987080928     A.U. after   12 cycles
 SCF Done:  E(RB3LYP) =  -839.987353352     A.U. after   11 cycles
 SCF Done:  E(RB3LYP) =  -839.987405528     A.U. after   11 cycles
 SCF Done:  E(RB3LYP) =  -839.987440660     A.U. after   11 cycles
 SCF Done:  E(RB3LYP) =  -839.989798160     A.U. after    9 cycles
 SCF Done:  E(RB3LYP) =  -839.989800373     A.U. after    9 cycles
 SCF Done:  E(RB3LYP) =  -839.989801612     A.U. after    9 cycles
 SCF Done:  E(RB3LYP) =  -839.989802407     A.U. after    7 cycles
 SCF Done:  E(RB3LYP) =  -839.989802893     A.U. after    7 cycles
 SCF Done:  E(RB3LYP) =  -839.989803233     A.U. after    7 cycles
 SCF Done:  E(RB3LYP) =  -839.989803483     A.U. after    7 cycles
 SCF Done:  E(RB3LYP) =  -839.989803639     A.U. after    7 cycles
 SCF Done:  E(RB3LYP) =  -839.989803684     A.U. after    7 cycles
 Optimization completed.
    -- Stationary point found.
 Normal termination of Gaussian 09 at Mon Jan 16 01:13:32 2017.

 --------------------------------------------------------------------
 #N Geom=AllCheck Guess=TCheck SCRF=Check GenChk RB3LYP/6-31G(d) Freq
 --------------------------------------------------------------------

 Structure from the checkpoint file:  "/scratch/10464874.yak.local/Gau-3715.chk"
 -----------------------------------
 glo_1w_alpha_ircr_boat2_B3LYP_631Gd
 -----------------------------------
 Charge =  0 Multiplicity = 1

                         Standard orientation:
 ---------------------------------------------------------------------
 Center     Atomic      Atomic             Coordinates (Angstroms)
 Number     Number       Type             X           Y           Z
 ---------------------------------------------------------------------
      1          6           0       -1.711968   -1.608536   -0.726071
      2          8           0       -1.043629    1.142574   -0.884505
      3          1           0       -4.362352    1.197114    0.739941
      4          8           0       -3.532724    1.032769    0.267701
      5          1           0       -1.854714    1.518703   -0.495066
      6          6           0        0.969481    0.158318   -0.214596
      7          6           0        0.071789    1.394619   -0.034775
      8          1           0        1.049323   -0.030004   -1.289731
      9          1           0       -0.233823    1.485785    1.016545
     10          8           0        2.337136    0.441687    0.205851
     11          1           0        2.315916    0.558368    1.172230
     12          6           0        0.735861    2.711767   -0.476004
     13          8           0        1.788560    3.145026    0.371715
     14          1           0       -0.030194    3.494083   -0.449937
     15          1           0        1.063056    2.611634   -1.522906
     16          1           0        2.515984    2.523026    0.211511
     17          1           0       -1.114808   -2.127429   -1.497540
     18          8           0       -2.872566   -1.302718   -0.945313
     19          1           0       -3.644588    0.192344   -0.231307
     20          8           0        3.817935   -1.880513   -0.132038
     21          1           0        4.115893   -2.034419   -1.041656
     22          1           0        3.554880   -0.935947   -0.107267
     23          6           0        0.518480   -1.153905    0.477066
     24          1           0        0.857953   -1.086552    1.526886
     25          6           0       -1.000641   -1.457150    0.601982
     26          1           0       -0.994003   -2.496835    0.980056
     27          8           0       -1.629331   -0.650031    1.559763
     28          1           0       -2.264524   -0.037694    1.136616
     29          8           0        1.069107   -2.283465   -0.170221
     30          1           0        2.052076   -2.265485   -0.097597
 ---------------------------------------------------------------------

 SCF Done:  E(RB3LYP) =  -839.989803684     A.U. after    1 cycles

 The electronic state is 1-A.
 Alpha  occ. eigenvalues --  -19.19457 -19.17509 -19.16522 -19.15923 -19.14862
 Alpha  occ. eigenvalues --  -19.14252 -19.13853 -19.13556 -10.28890 -10.25309
 Alpha  occ. eigenvalues --  -10.24944 -10.24925 -10.24007 -10.22674  -1.06448
 Alpha  occ. eigenvalues --   -1.06092  -1.03316  -1.02303  -1.02177  -1.01665
 Alpha  occ. eigenvalues --   -1.00960  -1.00647  -0.78128  -0.74899  -0.69675
 Alpha  occ. eigenvalues --   -0.64329  -0.61280  -0.58507  -0.56677  -0.54404
 Alpha  occ. eigenvalues --   -0.54330  -0.52797  -0.51251  -0.49864  -0.48872
 Alpha  occ. eigenvalues --   -0.47333  -0.46575  -0.46193  -0.44133  -0.42783
 Alpha  occ. eigenvalues --   -0.41885  -0.40740  -0.39677  -0.39330  -0.38431
 Alpha  occ. eigenvalues --   -0.36842  -0.35989  -0.35068  -0.34787  -0.34169
 Alpha  occ. eigenvalues --   -0.33132  -0.31478  -0.30710  -0.29567  -0.27530
 Alpha  occ. eigenvalues --   -0.26866  -0.26122  -0.24692
 Alpha virt. eigenvalues --   -0.03292   0.03346   0.05120   0.07335   0.09014
 Alpha virt. eigenvalues --    0.10715   0.11815   0.12433   0.13412   0.14140
 Alpha virt. eigenvalues --    0.14973   0.16054   0.17554   0.17804   0.18669

 Mulliken charges:
               1
     1  C    0.268341
     2  O   -0.667823
     3  H    0.412398
     4  O   -0.809713
     5  H    0.436570
     6  C    0.101738
     7  C    0.073924
     8  H    0.162380
     9  H    0.140342
    10  O   -0.660751
    11  H    0.409141
    12  C   -0.042533
    13  O   -0.630867
    14  H    0.144813
    15  H    0.126264
    16  H    0.397977
    17  H    0.152176
    18  O   -0.449542
    19  H    0.441062
    20  O   -0.799284
    21  H    0.399599
    22  H    0.423394
    23  C    0.104468
    24  H    0.118034
    25  C    0.073528
    26  H    0.176217
    27  O   -0.672460
    28  H    0.422539
    29  O   -0.678991
    30  H    0.427061
 Sum of Mulliken charges =  -0.00000

 Dipole moment (field-independent basis, Debye):
    X=             -0.2626    Y=              0.3190    Z=             -0.3571  Tot=              0.5461
 Quadrupole moment (field-independent basis, Debye-Ang):
   XX=            -68.9679   YY=            -94.6839   ZZ=            -84.5697
   XY=             -5.6437   XZ=             -8.9161   YZ=              2.6133

  Exact polarizability: 113.922  -6.270  97.041   0.330   4.000  79.860
 Approx polarizability: 149.685 -11.079 125.603   4.283   9.051 123.565

                      1                      2                      3
                      A                      A                      A
 Frequencies --     35.1660                51.1055                69.7613
 Red. masses --      5.6142                 4.9052                 6.2267
 Frc consts  --      0.0041                 0.0075                 0.0179
 IR Inten    --      1.8379                 4.7679                 2.3782

                      4                      5                      6
                      A                      A                      A
 Frequencies --     93.1828               114.6074               125.3548
 Red. masses --      7.0296                 6.2521                 6.8430
 Frc consts  --      0.0360                 0.0484                 0.0634
 IR Inten    --      8.4368                 0.3269                 2.1867

                      7                      8                      9
                      A                      A                      A
 Frequencies --    139.4875               147.2714               158.3492
 Red. masses --      3.9008                 2.2313                 5.2302
 Frc consts  --      0.0447                 0.0285                 0.0773
 IR Inten    --      5.3623                67.0565                 4.3873

                     10                     11                     12
                      A                      A                      A
 Frequencies --    177.1894               185.1833               199.2652
 Red. masses --      1.8233                 4.8377                 5.9762
 Frc consts  --      0.0337                 0.0977                 0.1398
 IR Inten    --     15.0060                35.3819                 0.7968

                     13                     14                     15
                      A                      A                      A
 Frequencies --    221.7086               240.3927               257.8752
 Red. masses --      3.0000                 4.1298                 2.0395
 Frc consts  --      0.0869                 0.1406                 0.0799
 IR Inten    --     69.7738                 3.9883                32.7246

                     16                     17                     18
                      A                      A                      A
 Frequencies --    265.0795               275.7229               306.5280
 Red. masses --      1.8854                 2.8669                 2.0202
 Frc consts  --      0.0781                 0.1284                 0.1118
 IR Inten    --    136.6806               108.6999               100.4666

                     19                     20                     21
                      A                      A                      A
 Frequencies --    326.2563               351.3639               373.6603
 Red. masses --      3.2426                 2.7925                 3.4847
 Frc consts  --      0.2034                 0.2031                 0.2867
 IR Inten    --     16.0583                75.6710                68.5601

                     22                     23                     24
                      A                      A                      A
 Frequencies --    411.0714               413.5742               432.7711
 Red. masses --      1.8296                 2.0069                 2.0973
 Frc consts  --      0.1822                 0.2022                 0.2314
 IR Inten    --     79.4295                86.3385                34.6088

                     25                     26                     27
                      A                      A                      A
 Frequencies --    434.8500               452.4139               481.2195
 Red. masses --      1.6076                 1.3483                 2.9518
 Frc consts  --      0.1791                 0.1626                 0.4027
 IR Inten    --     18.7313               136.0870                17.2442

                     28                     29                     30
                      A                      A                      A
 Frequencies --    550.2456               558.8235               619.4743
 Red. masses --      4.0023                 3.4438                 2.3853
 Frc consts  --      0.7140                 0.6336                 0.5393
 IR Inten    --      6.3392                56.2692                25.9361

                     31                     32                     33
                      A                      A                      A
 Frequencies --    642.2889               669.1927               672.7170
 Red. masses --      1.1511                 1.1652                 1.1537
 Frc consts  --      0.2798                 0.3074                 0.3076
 IR Inten    --     51.2231                76.7287               216.8983

                     34                     35                     36
                      A                      A                      A
 Frequencies --    716.7918               770.9834               818.2198
 Red. masses --      2.4844                 1.1381                 2.9038
 Frc consts  --      0.7521                 0.3986                 1.1454
 IR Inten    --      7.6664               112.9986               128.0042

                     37                     38                     39
                      A                      A                      A
 Frequencies --    827.5895               886.4142               961.5638
 Red. masses --      1.1766                 1.7892                 2.0015
 Frc consts  --      0.4748                 0.8283                 1.0904
 IR Inten    --    133.6057                36.2255                 3.7520

                     40                     41                     42
                      A                      A                      A
 Frequencies --    996.1535              1049.4962              1058.9443
 Red. masses --      4.8893                 2.4754                 3.2007
 Frc consts  --      2.8586                 1.6064                 2.1147
 IR Inten    --     93.4489                18.2868                14.7637

                     43                     44                     45
                      A                      A                      A
 Frequencies --   1089.1043              1091.9693              1106.8020
 Red. masses --      6.5641                 3.3965                 2.5945
 Frc consts  --      4.5874                 2.3862                 1.8726
 IR Inten    --    125.5873                39.7025                21.6793

                     46                     47                     48
                      A                      A                      A
 Frequencies --   1117.1926              1141.5657              1181.9459
 Red. masses --      3.8623                 2.7186                 2.8286
 Frc consts  --      2.8402                 2.0873                 2.3282
 IR Inten    --     24.3766                 2.6673                90.0773

                     49                     50                     51
                      A                      A                      A
 Frequencies --   1212.2134              1222.5418              1267.1975
 Red. masses --      1.2042                 1.1462                 1.2036
 Frc consts  --      1.0426                 1.0093                 1.1387
 IR Inten    --     31.4573                 7.7915                36.4462

                     52                     53                     54
                      A                      A                      A
 Frequencies --   1281.3053              1322.3986              1330.9370
 Red. masses --      1.1994                 1.1881                 1.2755
 Frc consts  --      1.1602                 1.2241                 1.3312
 IR Inten    --      9.4061                 1.2334                21.9928

                     55                     56                     57
                      A                      A                      A
 Frequencies --   1354.5568              1379.5876              1407.7978
 Red. masses --      1.4497                 1.3166                 1.3015
 Frc consts  --      1.5672                 1.4764                 1.5197
 IR Inten    --     46.3713                18.9928                 7.9877

                     58                     59                     60
                      A                      A                      A
 Frequencies --   1415.2904              1423.0699              1429.8993
 Red. masses --      1.2087                 1.2296                 1.2509
 Frc consts  --      1.4265                 1.4671                 1.5069
 IR Inten    --     14.5306                11.1121                29.7168

                     61                     62                     63
                      A                      A                      A
 Frequencies --   1443.3129              1459.3281              1467.1152
 Red. masses --      1.3149                 1.3134                 1.3425
 Frc consts  --      1.6139                 1.6480                 1.7025
 IR Inten    --     38.6052                79.0498                24.6602

                     64                     65                     66
                      A                      A                      A
 Frequencies --   1493.1997              1527.7162              1689.8012
 Red. masses --      1.2660                 1.0896                 1.1047
 Frc consts  --      1.6632                 1.4983                 1.8586
 IR Inten    --     44.9268                 0.6517               152.6707

                     67                     68                     69
                      A                      A                      A
 Frequencies --   1723.4360              1795.0353              2951.8777
 Red. masses --      1.0750                 7.9743                 1.0818
 Frc consts  --      1.8813                15.1387                 5.5538
 IR Inten    --     53.4529               160.2043                49.8070

                     70                     71                     72
                      A                      A                      A
 Frequencies --   2963.0581              3010.7140              3014.0218
 Red. masses --      1.0813                 1.0692                 1.0875
 Frc consts  --      5.5933                 5.7100                 5.8206
 IR Inten    --     20.0569                38.5278                52.3983

                     73                     74                     75
                      A                      A                      A
 Frequencies --   3047.0911              3099.5027              3102.5679
 Red. masses --      1.0839                 1.0958                 1.0880
 Frc consts  --      5.9295                 6.2023                 6.1703
 IR Inten    --     25.2000                31.2101                26.1415

                     76                     77                     78
                      A                      A                      A
 Frequencies --   3451.6256              3507.6568              3579.0047
 Red. masses --      1.0679                 1.0607                 1.0563
 Frc consts  --      7.4957                 7.6893                 7.9716
 IR Inten    --    479.7519               146.5163               546.3564

                     79                     80                     81
                      A                      A                      A
 Frequencies --   3598.3708              3668.9827              3700.7368
 Red. masses --      1.0660                 1.0669                 1.0656
 Frc consts  --      8.1324                 8.4615                 8.5987
 IR Inten    --    299.5686               443.5283                25.6679

                     82                     83                     84
                      A                      A                      A
 Frequencies --   3739.1799              3799.0367              3809.7669
 Red. masses --      1.0649                 1.0716                 1.0707
 Frc consts  --      8.7726                 9.1126                 9.1566
 IR Inten    --     44.3867                78.0764                76.5380

 - Thermochemistry -
 -------------------
 Temperature   298.150 Kelvin.  Pressure   1.00000 Atm.
 Atom     1 has atomic number  6 and mass  12.00000

 Molecular mass:   216.08452 amu.
 Principal axes and moments of inertia in atomic units:
                           1         2         3
     Eigenvalues --  2549.743853732.078465548.55722
           X            0.99941  -0.03342  -0.00807
           Y            0.03340   0.99944  -0.00224
           Z            0.00814   0.00197   0.99996
 This molecule is an asymmetric top.
 Rotational symmetry number  1.
 Warning -- assumption of classical behavior for rotation
           may cause significant error
 Rotational temperatures (Kelvin)      0.03397     0.02321     0.01561
 Rotational constants (GHZ):           0.70781     0.48358     0.32526
 Zero-point vibrational energy     645725.2 (Joules/Mol)
                                  154.33203 (Kcal/Mol)
 Warning -- explicit consideration of  30 degrees of freedom as
           vibrations may cause significant error
 Vibrational temperatures:     50.60    73.53   100.37   134.07   164.89
          (Kelvin)            180.36   200.69   211.89   227.83   254.94
                              266.44   286.70   318.99   345.87   371.02
                              381.39   396.70   441.02   469.41   505.53
                              537.61   591.44   595.04   622.66   625.65
                              650.92   692.37   791.68   804.02   891.28
                              924.11   962.82   967.89  1031.30  1109.27
                             1177.23  1190.72  1275.35  1383.47  1433.24
                             1509.99  1523.58  1566.98  1571.10  1592.44
                             1607.39  1642.46  1700.55  1744.10  1758.96
                             1823.21  1843.51  1902.63  1914.92  1948.90
                             1984.92  2025.50  2036.28  2047.48  2057.30
                             2076.60  2099.65  2110.85  2148.38  2198.04
                             2431.24  2479.64  2582.65  4247.09  4263.17
                             4331.74  4336.50  4384.08  4459.49  4463.90
                             4966.11  5046.73  5149.38  5177.25  5278.84
                             5324.53  5379.84  5465.96  5481.40

 Zero-point correction=                           0.245944 (Hartree/Particle)
 Thermal correction to Energy=                    0.264398
 Thermal correction to Enthalpy=                  0.265342
 Thermal correction to Gibbs Free Energy=         0.200417
 Sum of electronic and zero-point Energies=           -839.743860
 Sum of electronic and thermal Energies=              -839.725406
 Sum of electronic and thermal Enthalpies=            -839.724461
 Sum of electronic and thermal Free Energies=         -839.789387

                     E (Thermal)             CV                S
                      KCal/Mol        Cal/Mol-Kelvin    Cal/Mol-Kelvin
 Total                  165.912             66.849            136.647
 Electronic               0.000              0.000              0.000
 Translational            0.889              2.981             42.015
 Rotational               0.889              2.981             32.335
 Vibrational            164.135             60.887             62.298
 Vibration     1          0.594              1.982              5.514
 Vibration     2          0.595              1.977              4.774
 Vibration     3          0.598              1.969              4.160
 Vibration     4          0.602              1.954              3.592
 Vibration     5          0.608              1.937              3.189
 Vibration     6          0.610              1.928              3.016
 Vibration     7          0.615              1.914              2.811
 Vibration     8          0.617              1.906              2.707
 Vibration     9          0.621              1.893              2.569
 Vibration    10          0.628              1.870              2.358
 Vibration    11          0.631              1.860              2.276
 Vibration    12          0.637              1.841              2.140
 Vibration    13          0.648              1.808              1.945
 Vibration    14          0.657              1.779              1.800
 Vibration    15          0.667              1.749              1.676
 Vibration    16          0.671              1.737              1.628
 Vibration    17          0.677              1.718              1.560
 Vibration    18          0.697              1.661              1.381
 Vibration    19          0.710              1.623              1.279
 Vibration    20          0.728              1.572              1.160
 Vibration    21          0.745              1.526              1.065
 Vibration    22          0.775              1.446              0.923
 Vibration    23          0.777              1.441              0.914
 Vibration    24          0.794              1.399              0.850
 Vibration    25          0.795              1.394              0.843
 Vibration    26          0.811              1.356              0.789
 Vibration    27          0.838              1.292              0.707
 Vibration    28          0.906              1.139              0.544
 Vibration    29          0.914              1.120              0.526
 Vibration    30          0.979              0.991              0.417

 Normal termination of Gaussian 09 at Mon Jan 16 01:45:32 2017.
