 Gaussian 09, Revision E.01,
 Gaussian 09:  ES64L-G09RevE.01 30-Nov-2015

 -------------------------
 # b3lyp/6-31g(d) opt freq
 -------------------------

 ----------------------------------
 glo_2w_beta_ircf_boat2_B3LYP_631Gd
 ----------------------------------
 Symbolic Z-matrix:
 Charge =  0 Multiplicity = 1

 SCF Done:  E(RB3LYP) =  -839.964861748     A.U. after   14 cycles
 SCF Done:  E(RB3LYP) =  -839.964487675     A.U. after   14 cycles
 SCF Done:  E(RB3LYP) =  -839.969731479     A.U. after   11 cycles
 SCF Done:  E(RB3LYP) =  -839.972869036     A.U. after   12 cycles
 SCF Done:  E(RB3LYP) =  -839.977099765     A.U. after   13 cycles
 SCF Done:  E(RB3LYP) =  -839.978024693     A.U. after   13 cycles
 SCF Done:  E(RB3LYP) =  -839.981082493     A.U. after   12 cycles
 SCF Done:  E(RB3LYP) =  -839.979521068     A.U. after   13 cycles
 SCF Done:  E(RB3LYP) =  -839.982321620     A.U. after   10 cycles
 SCF Done:  E(RB3LYP) =  -839.982694794     A.U. after   12 cycles
 SCF Done:  E(RB3LYP) =  -839.985852132     A.U. after    9 cycles
 SCF Done:  E(RB3LYP) =  -839.985855639     A.U. after    9 cycles
 SCF Done:  E(RB3LYP) =  -839.985859541     A.U. after    9 cycles
 SCF Done:  E(RB3LYP) =  -839.985863669     A.U. after    8 cycles
 SCF Done:  E(RB3LYP) =  -839.985866417     A.U. after    8 cycles
 SCF Done:  E(RB3LYP) =  -839.985867972     A.U. after    8 cycles
 SCF Done:  E(RB3LYP) =  -839.985869173     A.U. after    8 cycles
 SCF Done:  E(RB3LYP) =  -839.985869968     A.U. after    8 cycles
 SCF Done:  E(RB3LYP) =  -839.985870095     A.U. after    7 cycles
 Optimization completed.
    -- Stationary point found.
 Normal termination of Gaussian 09 at Mon Jan 16 00:16:58 2017.

 --------------------------------------------------------------------
 #N Geom=AllCheck Guess=TCheck SCRF=Check GenChk RB3LYP/6-31G(d) Freq
 --------------------------------------------------------------------

 Structure from the checkpoint file:  "/scratch/10464879.yak.local/Gau-28273.chk"
 ----------------------------------
 glo_2w_beta_ircf_boat2_B3LYP_631Gd
 ----------------------------------
 Charge =  0 Multiplicity = 1

                         Standard orientation:
 ---------------------------------------------------------------------
 Center     Atomic      Atomic             Coordinates (Angstroms)
 Number     Number       Type             X           Y           Z
 ---------------------------------------------------------------------
      1          6           0        1.239319    0.901368    1.441665
      2          8           0       -0.504499   -0.859186    0.942513
      3          1           0        1.098729   -3.283174   -1.189138
      4          1           0        3.160172   -0.742923   -0.992081
      5          8           0        3.480767   -1.387275   -0.332447
      6          1           0        2.035294   -2.338386   -0.345924
      7          8           0        1.080763   -2.572711   -0.531112
      8          1           0       -0.211380   -1.667152    0.472088
      9          6           0       -1.098660    0.563392   -1.022728
     10          6           0       -1.554398   -0.201095    0.251027
     11          1           0       -1.195749   -0.094232   -1.897380
     12          1           0       -1.914145    0.561341    0.955745
     13          8           0       -1.990106    1.645545   -1.271135
     14          1           0       -1.763048    2.330107   -0.616958
     15          6           0       -2.715461   -1.139902   -0.092885
     16          8           0       -3.259601   -1.818506    1.025270
     17          1           0       -2.353644   -1.928643   -0.765201
     18          1           0       -3.475480   -0.561445   -0.641159
     19          1           0       -3.563837   -1.150030    1.658752
     20          1           0        3.359991   -0.876978    0.492896
     21          6           0        0.888924    1.763811    0.225508
     22          1           0        1.820725    2.272264   -0.061687
     23          6           0        0.376335    1.041146   -1.055483
     24          1           0        0.388411    1.812922   -1.833740
     25          8           0       -0.127324    2.711672    0.575044
     26          1           0        0.248588    3.391523    1.154043
     27          8           0        1.279074    0.037167   -1.478369
     28          1           0        0.990672   -0.842034   -1.151983
     29          8           0        2.297421    0.317046    1.571681
     30          1           0        0.506390    0.954506    2.267548
 ---------------------------------------------------------------------

 SCF Done:  E(RB3LYP) =  -839.985870095     A.U. after    1 cycles

 The electronic state is 1-A.
 Alpha  occ. eigenvalues --  -19.18891 -19.16518 -19.16104 -19.15268 -19.14721
 Alpha  occ. eigenvalues --  -19.14595 -19.14352 -19.14226 -10.28921 -10.26294
 Alpha  occ. eigenvalues --  -10.25352 -10.24174 -10.23768 -10.22998  -1.06585
 Alpha  occ. eigenvalues --   -1.05182  -1.03771  -1.02559  -1.02049  -1.01400
 Alpha  occ. eigenvalues --   -1.00675  -1.00035  -0.77831  -0.75171  -0.69489
 Alpha  occ. eigenvalues --   -0.64835  -0.61968  -0.58762  -0.56653  -0.54456
 Alpha  occ. eigenvalues --   -0.52252  -0.52064  -0.51559  -0.48679  -0.48602
 Alpha  occ. eigenvalues --   -0.47102  -0.46163  -0.46025  -0.45267  -0.43102
 Alpha  occ. eigenvalues --   -0.41754  -0.41446  -0.39955  -0.39481  -0.38895
 Alpha  occ. eigenvalues --   -0.37436  -0.35841  -0.34116  -0.33503  -0.33099
 Alpha  occ. eigenvalues --   -0.32450  -0.31197  -0.30657  -0.30327  -0.28187
 Alpha  occ. eigenvalues --   -0.27274  -0.25679  -0.24617
 Alpha virt. eigenvalues --   -0.03638   0.03704   0.05191   0.07392   0.09819
 Alpha virt. eigenvalues --    0.10739   0.11317   0.12168   0.13208   0.14002
 Alpha virt. eigenvalues --    0.15482   0.15900   0.16759   0.17745   0.18465

 Mulliken charges:
               1
     1  C    0.270378
     2  O   -0.659770
     3  H    0.408208
     4  H    0.413012
     5  O   -0.820410
     6  H    0.436296
     7  O   -0.825918
     8  H    0.441532
     9  C    0.058254
    10  C    0.111062
    11  H    0.142875
    12  H    0.123315
    13  O   -0.646116
    14  H    0.415406
    15  C   -0.053004
    16  O   -0.609088
    17  H    0.137464
    18  H    0.145511
    19  H    0.388768
    20  H    0.434856
    21  C    0.046241
    22  H    0.156090
    23  C    0.124362
    24  H    0.158235
    25  O   -0.650216
    26  H    0.411643
    27  O   -0.688984
    28  H    0.426161
    29  O   -0.431519
    30  H    0.135355
 Sum of Mulliken charges =   0.00000

 Dipole moment (field-independent basis, Debye):
    X=             -0.1338    Y=              2.8221    Z=              0.2539  Tot=              2.8366
 Quadrupole moment (field-independent basis, Debye-Ang):
   XX=            -94.7472   YY=            -72.6629   ZZ=            -84.0543
   XY=              1.3864   XZ=             -4.7109   YZ=             13.9055

  Exact polarizability: 104.572  -2.317  98.551   0.706   3.479  85.586
 Approx polarizability: 140.390 -11.268 135.136   1.652   4.425 123.470

                      1                      2                      3
                      A                      A                      A
 Frequencies --     44.9274                48.5042                61.0381
 Red. masses --      5.8438                 6.4971                 5.6633
 Frc consts  --      0.0069                 0.0090                 0.0124
 IR Inten    --      0.4962                 2.3184                 0.0433

                      4                      5                      6
                      A                      A                      A
 Frequencies --     82.6307                91.6737               121.4815
 Red. masses --      5.8588                 2.9815                 6.2542
 Frc consts  --      0.0236                 0.0148                 0.0544
 IR Inten    --      5.0576                 4.7499                 7.0355

                      7                      8                      9
                      A                      A                      A
 Frequencies --    134.2284               138.2662               178.0478
 Red. masses --      4.2260                 5.9893                 3.0503
 Frc consts  --      0.0449                 0.0675                 0.0570
 IR Inten    --     12.0672                 6.5991                12.8498

                     10                     11                     12
                      A                      A                      A
 Frequencies --    202.4960               217.2210               220.9665
 Red. masses --      5.3924                 3.2329                 3.6167
 Frc consts  --      0.1303                 0.0899                 0.1040
 IR Inten    --      6.5633                40.8732                15.8673

                     13                     14                     15
                      A                      A                      A
 Frequencies --    233.4865               246.5100               255.3850
 Red. masses --      1.1809                 1.3470                 1.4703
 Frc consts  --      0.0379                 0.0482                 0.0565
 IR Inten    --    130.0184                12.7699                99.1313

                     16                     17                     18
                      A                      A                      A
 Frequencies --    266.0591               270.9917               293.7464
 Red. masses --      2.1781                 2.5737                 5.8941
 Frc consts  --      0.0908                 0.1114                 0.2996
 IR Inten    --     44.6082                31.2792                26.5887

                     19                     20                     21
                      A                      A                      A
 Frequencies --    310.5368               326.4801               349.4727
 Red. masses --      4.4143                 3.4027                 5.8423
 Frc consts  --      0.2508                 0.2137                 0.4204
 IR Inten    --     19.0892                12.6742                24.3107

                     22                     23                     24
                      A                      A                      A
 Frequencies --    362.5564               395.5335               446.9101
 Red. masses --      4.6647                 3.4966                 1.1724
 Frc consts  --      0.3613                 0.3223                 0.1380
 IR Inten    --      3.6736                24.7032                25.8197

                     25                     26                     27
                      A                      A                      A
 Frequencies --    453.5188               480.8635               512.8477
 Red. masses --      3.0441                 3.4485                 3.4971
 Frc consts  --      0.3689                 0.4698                 0.5419
 IR Inten    --      7.9748                 6.7607                 2.7331

                     28                     29                     30
                      A                      A                      A
 Frequencies --    532.6637               556.7631               594.8493
 Red. masses --      1.2206                 4.4559                 3.1082
 Frc consts  --      0.2040                 0.8138                 0.6480
 IR Inten    --     92.2329                 3.3432                18.1183

                     31                     32                     33
                      A                      A                      A
 Frequencies --    604.6247               637.5069               704.7514
 Red. masses --      1.0683                 1.1204                 1.2525
 Frc consts  --      0.2301                 0.2683                 0.3665
 IR Inten    --     87.3664               170.8514               431.4653

                     34                     35                     36
                      A                      A                      A
 Frequencies --    709.9974               813.6928               817.6284
 Red. masses --      2.1927                 1.1898                 2.7149
 Frc consts  --      0.6513                 0.4641                 1.0693
 IR Inten    --     64.3402                94.6783                 0.7477

                     37                     38                     39
                      A                      A                      A
 Frequencies --    897.1849               955.0997               997.2891
 Red. masses --      2.3565                 2.4509                 2.0817
 Frc consts  --      1.1176                 1.3173                 1.2199
 IR Inten    --     16.1720                 5.0063                23.1343

                     40                     41                     42
                      A                      A                      A
 Frequencies --   1015.1327              1036.2973              1071.5188
 Red. masses --      1.2183                 1.8913                 3.7647
 Frc consts  --      0.7397                 1.1967                 2.5467
 IR Inten    --    109.8862               129.6741                16.8245

                     43                     44                     45
                      A                      A                      A
 Frequencies --   1077.6059              1084.9326              1113.6756
 Red. masses --      4.2730                 5.5109                 4.0178
 Frc consts  --      2.9235                 3.8219                 2.9360
 IR Inten    --     17.1381               177.8457                43.5217

                     46                     47                     48
                      A                      A                      A
 Frequencies --   1129.3300              1140.2831              1161.1621
 Red. masses --      3.5352                 2.4211                 3.7715
 Frc consts  --      2.6565                 1.8548                 2.9960
 IR Inten    --     55.4253                29.4044                45.0132

                     49                     50                     51
                      A                      A                      A
 Frequencies --   1194.5998              1235.4093              1265.2344
 Red. masses --      1.1576                 1.1654                 1.1605
 Frc consts  --      0.9733                 1.0480                 1.0945
 IR Inten    --     22.0721                 6.4532                77.6719

                     52                     53                     54
                      A                      A                      A
 Frequencies --   1298.8190              1330.0826              1348.0405
 Red. masses --      1.3864                 1.2212                 1.2457
 Frc consts  --      1.3780                 1.2729                 1.3338
 IR Inten    --      9.3736                11.4149                 4.4564

                     55                     56                     57
                      A                      A                      A
 Frequencies --   1360.9954              1384.9485              1387.4314
 Red. masses --      1.2876                 1.2828                 1.3502
 Frc consts  --      1.4052                 1.4497                 1.5314
 IR Inten    --      2.2072                14.4561                 8.5685

                     58                     59                     60
                      A                      A                      A
 Frequencies --   1401.1580              1426.5204              1439.2166
 Red. masses --      1.2457                 1.3041                 1.2952
 Frc consts  --      1.4409                 1.5636                 1.5807
 IR Inten    --      4.5745                 4.0316                38.1894

                     61                     62                     63
                      A                      A                      A
 Frequencies --   1444.2670              1448.0287              1466.7796
 Red. masses --      1.2906                 1.2208                 1.1989
 Frc consts  --      1.5861                 1.5081                 1.5198
 IR Inten    --     20.1057                25.6373                90.8926

                     64                     65                     66
                      A                      A                      A
 Frequencies --   1483.9546              1530.1221              1733.4937
 Red. masses --      1.1708                 1.0935                 1.0848
 Frc consts  --      1.5190                 1.5084                 1.9207
 IR Inten    --     69.2702                 3.3586               119.7955

                     67                     68                     69
                      A                      A                      A
 Frequencies --   1748.1131              1807.0815              2994.9293
 Red. masses --      1.1256                 6.7611                 1.0880
 Frc consts  --      2.0266                13.0083                 5.7496
 IR Inten    --    245.7158               111.5840                63.7497

                     70                     71                     72
                      A                      A                      A
 Frequencies --   3013.6448              3028.2532              3036.1713
 Red. masses --      1.0646                 1.0844                 1.0827
 Frc consts  --      5.6965                 5.8591                 5.8802
 IR Inten    --     36.6686                24.7919                 7.7302

                     73                     74                     75
                      A                      A                      A
 Frequencies --   3046.5307              3067.5817              3077.8721
 Red. masses --      1.0873                 1.0863                 1.0993
 Frc consts  --      5.9459                 6.0227                 6.1358
 IR Inten    --     37.8024                35.4010                56.6115

                     76                     77                     78
                      A                      A                      A
 Frequencies --   3228.4001              3532.7301              3597.5124
 Red. masses --      1.0649                 1.0687                 1.0668
 Frc consts  --      6.5391                 7.8580                 8.1345
 IR Inten    --    585.9827               211.7604               466.5767

                     79                     80                     81
                      A                      A                      A
 Frequencies --   3649.8461              3695.9490              3705.0378
 Red. masses --      1.0474                 1.0656                 1.0780
 Frc consts  --      8.2209                 8.5761                 8.7188
 IR Inten    --    250.3653                64.5575               119.2902

                     82                     83                     84
                      A                      A                      A
 Frequencies --   3740.5879              3761.0502              3805.0282
 Red. masses --      1.0660                 1.0670                 1.0668
 Frc consts  --      8.7882                 8.8929                 9.1004
 IR Inten    --     10.4499                32.1112                48.0023

 - Thermochemistry -
 -------------------
 Temperature   298.150 Kelvin.  Pressure   1.00000 Atm.
 Atom     1 has atomic number  6 and mass  12.00000

 Molecular mass:   216.08452 amu.
 Principal axes and moments of inertia in atomic units:
                           1         2         3
     Eigenvalues --  2554.854273609.591104607.69015
           X            0.99994  -0.00791  -0.00782
           Y            0.00811   0.99965   0.02507
           Z            0.00762  -0.02513   0.99966
 This molecule is an asymmetric top.
 Rotational symmetry number  1.
 Warning -- assumption of classical behavior for rotation
           may cause significant error
 Rotational temperatures (Kelvin)      0.03390     0.02400     0.01880
 Rotational constants (GHZ):           0.70640     0.49998     0.39168
 Zero-point vibrational energy     646664.1 (Joules/Mol)
                                  154.55642 (Kcal/Mol)
 Warning -- explicit consideration of  31 degrees of freedom as
           vibrations may cause significant error
 Vibrational temperatures:     64.64    69.79    87.82   118.89   131.90
          (Kelvin)            174.78   193.12   198.93   256.17   291.35
                              312.53   317.92   335.93   354.67   367.44
                              382.80   389.90   422.63   446.79   469.73
                              502.81   521.64   569.08   643.00   652.51
                              691.85   737.87   766.38   801.06   855.85
                              869.92   917.23  1013.98  1021.53  1170.72
                             1176.38  1290.85  1374.17  1434.87  1460.55
                             1491.00  1541.67  1550.43  1560.97  1602.33
                             1624.85  1640.61  1670.65  1718.76  1777.48
                             1820.39  1868.71  1913.69  1939.53  1958.17
                             1992.63  1996.20  2015.95  2052.44  2070.71
                             2077.98  2083.39  2110.37  2135.08  2201.50
                             2494.11  2515.14  2599.98  4309.03  4335.96
                             4356.98  4368.37  4383.27  4413.56  4428.37
                             4644.94  5082.80  5176.01  5251.31  5317.64
                             5330.72  5381.86  5411.31  5474.58

 Zero-point correction=                           0.246301 (Hartree/Particle)
 Thermal correction to Energy=                    0.264761
 Thermal correction to Enthalpy=                  0.265705
 Thermal correction to Gibbs Free Energy=         0.200814
 Sum of electronic and zero-point Energies=           -839.739569
 Sum of electronic and thermal Energies=              -839.721109
 Sum of electronic and thermal Enthalpies=            -839.720165
 Sum of electronic and thermal Free Energies=         -839.785056

                     E (Thermal)             CV                S
                      KCal/Mol        Cal/Mol-Kelvin    Cal/Mol-Kelvin
 Total                  166.140             66.699            136.574
 Electronic               0.000              0.000              0.000
 Translational            0.889              2.981             42.015
 Rotational               0.889              2.981             32.119
 Vibrational            164.362             60.738             62.440
 Vibration     1          0.595              1.979              5.029
 Vibration     2          0.595              1.978              4.877
 Vibration     3          0.597              1.973              4.423
 Vibration     4          0.600              1.961              3.827
 Vibration     5          0.602              1.955              3.624
 Vibration     6          0.609              1.931              3.077
 Vibration     7          0.613              1.919              2.885
 Vibration     8          0.614              1.915              2.828
 Vibration     9          0.628              1.869              2.349
 Vibration    10          0.639              1.836              2.110
 Vibration    11          0.646              1.815              1.982
 Vibration    12          0.648              1.809              1.951
 Vibration    13          0.654              1.790              1.852
 Vibration    14          0.661              1.769              1.755
 Vibration    15          0.666              1.754              1.693
 Vibration    16          0.672              1.735              1.622
 Vibration    17          0.675              1.727              1.590
 Vibration    18          0.689              1.685              1.452
 Vibration    19          0.699              1.654              1.359
 Vibration    20          0.710              1.623              1.277
 Vibration    21          0.727              1.576              1.169
 Vibration    22          0.736              1.549              1.111
 Vibration    23          0.762              1.480              0.979
 Vibration    24          0.806              1.368              0.805
 Vibration    25          0.812              1.353              0.785
 Vibration    26          0.837              1.292              0.708
 Vibration    27          0.868              1.222              0.627
 Vibration    28          0.888              1.178              0.581
 Vibration    29          0.912              1.125              0.530
 Vibration    30          0.953              1.043              0.459
 Vibration    31          0.963              1.022              0.442

 Normal termination of Gaussian 09 at Mon Jan 16 00:48:37 2017.
