 Gaussian 09, Revision E.01,
 Gaussian 09:  ES64L-G09RevE.01 30-Nov-2015

 -------------------------
 # b3lyp/6-31g(d) opt freq
 -------------------------

 ----------------------------------
 glo_2w_beta_ircr_boat2_B3LYP_631Gd
 ----------------------------------
 Symbolic Z-matrix:
 Charge =  0 Multiplicity = 1

 SCF Done:  E(RB3LYP) =  -839.973120269     A.U. after   14 cycles
 SCF Done:  E(RB3LYP) =  -839.708959112     A.U. after   14 cycles
 SCF Done:  E(RB3LYP) =  -839.978504015     A.U. after   12 cycles
 SCF Done:  E(RB3LYP) =  -839.983060099     A.U. after   11 cycles
 SCF Done:  E(RB3LYP) =  -839.986800700     A.U. after   11 cycles
 SCF Done:  E(RB3LYP) =  -839.984309745     A.U. after   12 cycles
 SCF Done:  E(RB3LYP) =  -839.989398888     A.U. after   10 cycles
 SCF Done:  E(RB3LYP) =  -839.991386100     A.U. after   11 cycles
 SCF Done:  E(RB3LYP) =  -839.994168384     A.U. after   11 cycles
 SCF Done:  E(RB3LYP) =  -839.992709489     A.U. after   12 cycles
 SCF Done:  E(RB3LYP) =  -840.001163609     A.U. after    7 cycles
 SCF Done:  E(RB3LYP) =  -840.001164065     A.U. after    7 cycles
 SCF Done:  E(RB3LYP) =  -840.001164178     A.U. after    7 cycles
 SCF Done:  E(RB3LYP) =  -840.001164335     A.U. after    7 cycles
 SCF Done:  E(RB3LYP) =  -840.001164612     A.U. after    7 cycles
 SCF Done:  E(RB3LYP) =  -840.001165064     A.U. after    7 cycles
 SCF Done:  E(RB3LYP) =  -840.001165754     A.U. after    7 cycles
 SCF Done:  E(RB3LYP) =  -840.001166481     A.U. after    7 cycles
 SCF Done:  E(RB3LYP) =  -840.001167255     A.U. after    7 cycles
 Optimization completed.
    -- Stationary point found.
 Normal termination of Gaussian 09 at Mon Jan 16 00:12:30 2017.

 --------------------------------------------------------------------
 #N Geom=AllCheck Guess=TCheck SCRF=Check GenChk RB3LYP/6-31G(d) Freq
 --------------------------------------------------------------------

 Structure from the checkpoint file:  "/scratch/10464877.yak.local/Gau-14394.chk"
 ----------------------------------
 glo_2w_beta_ircr_boat2_B3LYP_631Gd
 ----------------------------------
 Charge =  0 Multiplicity = 1

                         Standard orientation:
 ---------------------------------------------------------------------
 Center     Atomic      Atomic             Coordinates (Angstroms)
 Number     Number       Type             X           Y           Z
 ---------------------------------------------------------------------
      1          6           0        0.518807   -0.709204    1.262564
      2          8           0       -0.544394    0.164812    0.806503
      3          1           0       -3.492462   -0.356429   -0.737832
      4          1           0       -0.495795   -2.609140   -1.276791
      5          8           0       -1.009399   -3.056225   -0.577829
      6          1           0       -1.856573   -2.565457   -0.599807
      7          8           0       -2.646390   -0.808011   -0.599802
      8          1           0       -2.260798   -0.391270    0.198304
      9          6           0        0.947434    1.397651   -0.752402
     10          6           0       -0.129922    1.464164    0.377051
     11          1           0        0.581245    1.922990   -1.641964
     12          1           0        0.313864    1.998660    1.233213
     13          8           0        2.153055    2.048992   -0.389710
     14          1           0        2.617020    1.445638    0.222625
     15          6           0       -1.387961    2.195721   -0.107322
     16          8           0       -2.524704    2.007645    0.721808
     17          1           0       -1.683727    1.808850   -1.087637
     18          1           0       -1.138983    3.260792   -0.233822
     19          1           0       -2.274959    2.216581    1.635946
     20          1           0       -0.368176   -2.399320    0.934480
     21          6           0        1.557774   -0.895660    0.121708
     22          1           0        1.614536   -1.960257   -0.133296
     23          6           0        1.191052   -0.079341   -1.136250
     24          1           0        2.038172   -0.104067   -1.831654
     25          8           0        2.819560   -0.453668    0.659807
     26          1           0        3.523896   -0.748887    0.060274
     27          8           0        0.098631   -0.661449   -1.843815
     28          1           0       -0.737117   -0.485560   -1.367965
     29          8           0       -0.044081   -1.873438    1.713367
     30          1           0        1.018538   -0.222370    2.111198
 ---------------------------------------------------------------------

 SCF Done:  E(RB3LYP) =  -840.001167255     A.U. after    1 cycles

 The electronic state is 1-A.
 Alpha  occ. eigenvalues --  -19.18354 -19.17147 -19.16692 -19.16452 -19.16139
 Alpha  occ. eigenvalues --  -19.14492 -19.14296 -19.13887 -10.29262 -10.25348
 Alpha  occ. eigenvalues --  -10.25335 -10.25203 -10.25076 -10.24850  -1.07987
 Alpha  occ. eigenvalues --   -1.05081  -1.03773  -1.03340  -1.02216  -1.01878
 Alpha  occ. eigenvalues --   -1.00731  -0.99450  -0.78426  -0.77291  -0.69843
 Alpha  occ. eigenvalues --   -0.65787  -0.64179  -0.59645  -0.55802  -0.54939
 Alpha  occ. eigenvalues --   -0.54458  -0.53044  -0.51669  -0.51460  -0.50947
 Alpha  occ. eigenvalues --   -0.47752  -0.45963  -0.45597  -0.44961  -0.43301
 Alpha  occ. eigenvalues --   -0.42264  -0.40682  -0.40315  -0.39800  -0.38360
 Alpha  occ. eigenvalues --   -0.37556  -0.36755  -0.35097  -0.34781  -0.33443
 Alpha  occ. eigenvalues --   -0.32364  -0.31780  -0.30534  -0.29691  -0.29314
 Alpha  occ. eigenvalues --   -0.28207  -0.26341  -0.25697
 Alpha virt. eigenvalues --    0.03485   0.04668   0.06945   0.08221   0.10627
 Alpha virt. eigenvalues --    0.10707   0.11077   0.11845   0.12926   0.14639
 Alpha virt. eigenvalues --    0.15048   0.15433   0.16623   0.17122   0.19170

 Mulliken charges:
               1
     1  C    0.356609
     2  O   -0.540470
     3  H    0.412164
     4  H    0.410061
     5  O   -0.828209
     6  H    0.430490
     7  O   -0.823043
     8  H    0.448193
     9  C    0.077541
    10  C    0.096680
    11  H    0.152705
    12  H    0.135344
    13  O   -0.650503
    14  H    0.410099
    15  C   -0.069040
    16  O   -0.621120
    17  H    0.154998
    18  H    0.149379
    19  H    0.400503
    20  H    0.435651
    21  C    0.027577
    22  H    0.156471
    23  C    0.098843
    24  H    0.141041
    25  O   -0.636374
    26  H    0.408409
    27  O   -0.673144
    28  H    0.435106
    29  O   -0.644730
    30  H    0.148770
 Sum of Mulliken charges =  -0.00000

 Dipole moment (field-independent basis, Debye):
    X=              0.2143    Y=              2.2708    Z=             -0.5522  Tot=              2.3468
 Quadrupole moment (field-independent basis, Debye-Ang):
   XX=            -73.5782   YY=            -93.6018   ZZ=            -87.0354
   XY=             -8.4549   XZ=             -1.3650   YZ=              6.6422

  Exact polarizability: 101.330  -0.396  96.905   0.738   0.184  83.512
 Approx polarizability: 136.476   4.473 129.952   3.334   0.760 123.892

                      1                      2                      3
                      A                      A                      A
 Frequencies --     39.8748                64.6939                76.7515
 Red. masses --      6.5219                 4.5323                 6.0270
 Frc consts  --      0.0061                 0.0112                 0.0209
 IR Inten    --      3.0786                 5.5546                 2.2176

                      4                      5                      6
                      A                      A                      A
 Frequencies --    105.9361               125.4282               133.5646
 Red. masses --      5.5564                 3.2392                 4.9055
 Frc consts  --      0.0367                 0.0300                 0.0516
 IR Inten    --      6.5150                 2.9086                 2.3936

                      7                      8                      9
                      A                      A                      A
 Frequencies --    165.0018               195.1719               224.4693
 Red. masses --      3.5714                 3.0789                 4.9836
 Frc consts  --      0.0573                 0.0691                 0.1479
 IR Inten    --      9.5647                10.0838                 5.3861

                     10                     11                     12
                      A                      A                      A
 Frequencies --    226.2026               240.8540               255.3744
 Red. masses --      5.0970                 3.4051                 4.3378
 Frc consts  --      0.1537                 0.1164                 0.1667
 IR Inten    --      5.9373                12.1249                13.3845

                     13                     14                     15
                      A                      A                      A
 Frequencies --    264.5783               274.7728               285.0544
 Red. masses --      1.5998                 5.7501                 1.6650
 Frc consts  --      0.0660                 0.2558                 0.0797
 IR Inten    --     73.1413                 5.5634                72.1309

                     16                     17                     18
                      A                      A                      A
 Frequencies --    299.7902               332.9996               344.3176
 Red. masses --      3.1586                 1.2164                 1.3789
 Frc consts  --      0.1673                 0.0795                 0.0963
 IR Inten    --     36.0437                76.4423               106.8970

                     19                     20                     21
                      A                      A                      A
 Frequencies --    359.9241               397.8495               418.3013
 Red. masses --      4.6416                 3.1864                 3.7221
 Frc consts  --      0.3543                 0.2972                 0.3837
 IR Inten    --     37.6010                 2.6614                29.2560

                     22                     23                     24
                      A                      A                      A
 Frequencies --    433.6039               443.0970               493.7074
 Red. masses --      1.0986                 6.0072                 3.3647
 Frc consts  --      0.1217                 0.6949                 0.4832
 IR Inten    --     80.1321                 6.7350                24.0132

                     25                     26                     27
                      A                      A                      A
 Frequencies --    501.4136               543.2013               561.9843
 Red. masses --      6.3830                 4.1014                 1.2036
 Frc consts  --      0.9455                 0.7130                 0.2240
 IR Inten    --      3.8216                 8.2631                51.2711

                     28                     29                     30
                      A                      A                      A
 Frequencies --    576.2656               629.9394               653.7924
 Red. masses --      4.7901                 2.8876                 1.1120
 Frc consts  --      0.9372                 0.6751                 0.2800
 IR Inten    --      5.8495                23.3942                93.8935

                     31                     32                     33
                      A                      A                      A
 Frequencies --    663.9102               732.9079               780.7880
 Red. masses --      1.1336                 1.0676                 1.1421
 Frc consts  --      0.2944                 0.3379                 0.4102
 IR Inten    --    296.6843                93.2627               289.3364

                     34                     35                     36
                      A                      A                      A
 Frequencies --    815.5690               863.1044               905.9255
 Red. masses --      3.2015                 3.6664                 2.2981
 Frc consts  --      1.2546                 1.6092                 1.1112
 IR Inten    --     39.9085                 7.7719                 2.6905

                     37                     38                     39
                      A                      A                      A
 Frequencies --    944.9954               959.2410               995.4929
 Red. masses --      3.1475                 1.1033                 3.4156
 Frc consts  --      1.6561                 0.5981                 1.9943
 IR Inten    --     64.3758               152.1431                88.7669

                     40                     41                     42
                      A                      A                      A
 Frequencies --   1035.7420              1044.9902              1061.7279
 Red. masses --      3.7796                 2.4929                 5.1806
 Frc consts  --      2.3889                 1.6039                 3.4408
 IR Inten    --    117.1741                60.2293                61.9625

                     43                     44                     45
                      A                      A                      A
 Frequencies --   1087.5238              1096.2592              1115.1054
 Red. masses --      5.9185                 3.7014                 3.2013
 Frc consts  --      4.1242                 2.6208                 2.3454
 IR Inten    --    126.4292                78.9239                19.6397

                     46                     47                     48
                      A                      A                      A
 Frequencies --   1119.8565              1133.8523              1196.9555
 Red. masses --      2.1216                 3.5982                 2.0408
 Frc consts  --      1.5676                 2.7255                 1.7226
 IR Inten    --      6.3085                17.0758               126.5364

                     49                     50                     51
                      A                      A                      A
 Frequencies --   1233.2130              1240.2359              1250.9866
 Red. masses --      1.2852                 1.4729                 1.4399
 Frc consts  --      1.1516                 1.3348                 1.3276
 IR Inten    --     19.9286                58.2519                51.4138

                     52                     53                     54
                      A                      A                      A
 Frequencies --   1273.6343              1310.0284              1338.0761
 Red. masses --      1.1970                 1.2134                 1.2994
 Frc consts  --      1.1440                 1.2269                 1.3707
 IR Inten    --     68.7747                 9.2108                 1.9098

                     55                     56                     57
                      A                      A                      A
 Frequencies --   1353.2247              1357.4319              1378.3758
 Red. masses --      1.2333                 1.3063                 1.2830
 Frc consts  --      1.3306                 1.4181                 1.4362
 IR Inten    --      4.4662                11.6200                12.1678

                     58                     59                     60
                      A                      A                      A
 Frequencies --   1380.8286              1401.6666              1422.1370
 Red. masses --      1.3438                 1.3543                 1.3196
 Frc consts  --      1.5096                 1.5677                 1.5724
 IR Inten    --     15.1240                 6.7083                59.2986

                     61                     62                     63
                      A                      A                      A
 Frequencies --   1427.1311              1451.1068              1462.6490
 Red. masses --      1.3774                 1.2590                 1.4405
 Frc consts  --      1.6528                 1.5619                 1.8156
 IR Inten    --      4.2015                48.9209                15.1749

                     64                     65                     66
                      A                      A                      A
 Frequencies --   1492.2308              1531.6095              1534.0974
 Red. masses --      1.1946                 1.1532                 1.0847
 Frc consts  --      1.5673                 1.5939                 1.5041
 IR Inten    --     72.3159                98.0439                 3.6263

                     67                     68                     69
                      A                      A                      A
 Frequencies --   1676.3070              1773.4298              2994.6350
 Red. masses --      1.0852                 1.0747                 1.0842
 Frc consts  --      1.7967                 1.9915                 5.7284
 IR Inten    --     68.9903               126.5014                28.7701

                     70                     71                     72
                      A                      A                      A
 Frequencies --   3020.4691              3045.6058              3066.6129
 Red. masses --      1.0695                 1.0867                 1.0863
 Frc consts  --      5.7486                 5.9391                 6.0188
 IR Inten    --     46.4334                50.5197                33.2615

                     73                     74                     75
                      A                      A                      A
 Frequencies --   3070.0006              3077.0274              3105.0437
 Red. masses --      1.0859                 1.0884                 1.0956
 Frc consts  --      6.0302                 6.0717                 6.2233
 IR Inten    --     42.2041                30.1371                26.2602

                     76                     77                     78
                      A                      A                      A
 Frequencies --   3317.0809              3599.3217              3614.7163
 Red. masses --      1.0684                 1.0566                 1.0587
 Frc consts  --      6.9265                 8.0646                 8.1500
 IR Inten    --    520.8791               208.8602                53.7586

                     79                     80                     81
                      A                      A                      A
 Frequencies --   3626.6959              3639.7121              3701.2584
 Red. masses --      1.0658                 1.0580                 1.0764
 Frc consts  --      8.2594                 8.2582                 8.6880
 IR Inten    --    133.0086               238.9606               253.6897

                     82                     83                     84
                      A                      A                      A
 Frequencies --   3739.0463              3740.0726              3810.4389
 Red. masses --      1.0662                 1.0661                 1.0720
 Frc consts  --      8.7827                 8.7864                 9.1701
 IR Inten    --     26.3334                18.4013                88.5100

 - Thermochemistry -
 -------------------
 Temperature   298.150 Kelvin.  Pressure   1.00000 Atm.
 Atom     1 has atomic number  6 and mass  12.00000

 Molecular mass:   216.08452 amu.
 Principal axes and moments of inertia in atomic units:
                           1         2         3
     Eigenvalues --  2640.699652801.536003975.14897
           X            0.99765  -0.06842   0.00356
           Y            0.06837   0.99759   0.01184
           Z           -0.00437  -0.01157   0.99992
 This molecule is an asymmetric top.
 Rotational symmetry number  1.
 Warning -- assumption of classical behavior for rotation
           may cause significant error
 Rotational temperatures (Kelvin)      0.03280     0.03092     0.02179
 Rotational constants (GHZ):           0.68343     0.64420     0.45401
 Zero-point vibrational energy     656020.1 (Joules/Mol)
                                  156.79257 (Kcal/Mol)
 Warning -- explicit consideration of  28 degrees of freedom as
           vibrations may cause significant error
 Vibrational temperatures:     57.37    93.08   110.43   152.42   180.46
          (Kelvin)            192.17   237.40   280.81   322.96   325.45
                              346.53   367.43   380.67   395.34   410.13
                              431.33   479.11   495.40   517.85   572.42
                              601.84   623.86   637.52   710.33   721.42
                              781.54   808.57   829.12   906.34   940.66
                              955.22  1054.49  1123.38  1173.42  1241.81
                             1303.42  1359.64  1380.13  1432.29  1490.20
                             1503.51  1527.59  1564.70  1577.27  1604.39
                             1611.22  1631.36  1722.15  1774.32  1784.42
                             1799.89  1832.47  1884.84  1925.19  1946.99
                             1953.04  1983.17  1986.70  2016.68  2046.14
                             2053.32  2087.82  2104.42  2146.98  2203.64
                             2207.22  2411.83  2551.57  4308.61  4345.78
                             4381.94  4412.17  4417.04  4427.15  4467.46
                             4772.53  5178.61  5200.76  5218.00  5236.73
                             5325.28  5379.65  5381.12  5482.36

 Zero-point correction=                           0.249865 (Hartree/Particle)
 Thermal correction to Energy=                    0.266752
 Thermal correction to Enthalpy=                  0.267696
 Thermal correction to Gibbs Free Energy=         0.206854
 Sum of electronic and zero-point Energies=           -839.751302
 Sum of electronic and thermal Energies=              -839.734415
 Sum of electronic and thermal Enthalpies=            -839.733471
 Sum of electronic and thermal Free Energies=         -839.794314

                     E (Thermal)             CV                S
                      KCal/Mol        Cal/Mol-Kelvin    Cal/Mol-Kelvin
 Total                  167.389             63.569            128.054
 Electronic               0.000              0.000              0.000
 Translational            0.889              2.981             42.015
 Rotational               0.889              2.981             31.753
 Vibrational            165.612             57.607             54.286
 Vibration     1          0.594              1.981              5.265
 Vibration     2          0.597              1.971              4.309
 Vibration     3          0.599              1.965              3.972
 Vibration     4          0.605              1.944              3.342
 Vibration     5          0.610              1.928              3.015
 Vibration     6          0.613              1.920              2.894
 Vibration     7          0.623              1.885              2.492
 Vibration     8          0.636              1.847              2.178
 Vibration     9          0.649              1.804              1.923
 Vibration    10          0.650              1.801              1.909
 Vibration    11          0.658              1.778              1.797
 Vibration    12          0.666              1.754              1.693
 Vibration    13          0.671              1.738              1.631
 Vibration    14          0.677              1.720              1.566
 Vibration    15          0.683              1.701              1.503
 Vibration    16          0.692              1.674              1.418
 Vibration    17          0.715              1.610              1.245
 Vibration    18          0.723              1.587              1.192
 Vibration    19          0.734              1.555              1.122
 Vibration    20          0.764              1.475              0.971
 Vibration    21          0.781              1.430              0.898
 Vibration    22          0.794              1.397              0.847
 Vibration    23          0.803              1.376              0.817
 Vibration    24          0.849              1.264              0.674
 Vibration    25          0.857              1.247              0.655
 Vibration    26          0.898              1.155              0.558
 Vibration    27          0.918              1.114              0.520
 Vibration    28          0.933              1.083              0.492

 Normal termination of Gaussian 09 at Mon Jan 16 00:46:29 2017.
