 Gaussian 09, Revision D.01,
 Gaussian 09:  ES64L-G09RevD.01 24-Apr-2013

 ------------------------------------------------------
 # opt=(modredundant,MaxCycle=1000) freq B3LYP/6-31G(d)
 ------------------------------------------------------

 ------------------------
 boat4_Beta_B3LYP_6-31G_d
 ------------------------
 Symbolic Z-matrix:
 Charge =  0 Multiplicity = 1

 SCF Done:  E(RB3LYP) =  -839.963943641     A.U. after   14 cycles
 SCF Done:  E(RB3LYP) =  -839.982918997     A.U. after   12 cycles
 SCF Done:  E(RB3LYP) =  -839.991362516     A.U. after   11 cycles
 SCF Done:  E(RB3LYP) =  -839.992920071     A.U. after   11 cycles
 SCF Done:  E(RB3LYP) =  -839.993927604     A.U. after   11 cycles
 SCF Done:  E(RB3LYP) =  -839.994195183     A.U. after   12 cycles
 SCF Done:  E(RB3LYP) =  -839.994543834     A.U. after   11 cycles
 SCF Done:  E(RB3LYP) =  -839.994718952     A.U. after   10 cycles
 SCF Done:  E(RB3LYP) =  -839.994910408     A.U. after   11 cycles
 SCF Done:  E(RB3LYP) =  -839.994951400     A.U. after    9 cycles
 SCF Done:  E(RB3LYP) =  -839.995125232     A.U. after    8 cycles
 SCF Done:  E(RB3LYP) =  -839.995125516     A.U. after    7 cycles
 SCF Done:  E(RB3LYP) =  -839.995127135     A.U. after    9 cycles
 SCF Done:  E(RB3LYP) =  -839.995129892     A.U. after   10 cycles
 SCF Done:  E(RB3LYP) =  -839.995131159     A.U. after    7 cycles
 SCF Done:  E(RB3LYP) =  -839.995131713     A.U. after    7 cycles
 SCF Done:  E(RB3LYP) =  -839.995131728     A.U. after    7 cycles
 SCF Done:  E(RB3LYP) =  -839.995131677     A.U. after    7 cycles
 SCF Done:  E(RB3LYP) =  -839.995131676     A.U. after    6 cycles
 Optimization completed.
    -- Stationary point found.
 Normal termination of Gaussian 09 at Thu Jan 19 22:27:00 2017.

 --------------------------------------------------------------------
 #N Geom=AllCheck Guess=TCheck SCRF=Check GenChk RB3LYP/6-31G(d) Freq
 --------------------------------------------------------------------

 Structure from the checkpoint file:  "/home/iawad/Gau-16348.chk"
 ------------------------
 boat4_Beta_B3LYP_6-31G_d
 ------------------------
 Charge =  0 Multiplicity = 1

                         Standard orientation:
 ---------------------------------------------------------------------
 Center     Atomic      Atomic             Coordinates (Angstroms)
 Number     Number       Type             X           Y           Z
 ---------------------------------------------------------------------
      1          8           0        0.722218   -0.033396   -0.798442
      2          6           0       -1.372607    0.589238    0.378989
      3          6           0       -0.899596   -1.821232   -0.287763
      4          6           0       -1.975394   -0.751239   -0.030247
      5          6           0        0.528212   -1.282754   -0.087172
      6          6           0       -0.260978    0.999110   -0.600011
      7          1           0       -2.497219   -0.595171   -0.986978
      8          1           0       -0.731800    1.201735   -1.573991
      9          1           0       -0.957100    0.492563    1.389338
     10          1           0        1.248577   -1.945411   -0.587206
     11          6           0        0.495845    2.245554   -0.119304
     12          1           0        0.952432    2.029591    0.851144
     13          1           0        1.301570    2.489009   -0.828863
     14          1           0       -1.048681   -2.634040    0.433623
     15          8           0        0.791532   -1.162242    1.265302
     16          1           0        1.775624   -1.109032    1.385917
     17          8           0       -0.356018    3.375165    0.086802
     18          1           0       -0.698976    3.649709   -0.779282
     19          8           0       -1.079549   -2.268013   -1.629574
     20          1           0       -0.513117   -3.043645   -1.765630
     21          8           0       -2.877692   -1.218167    0.960083
     22          1           0       -3.480402   -0.475539    1.134663
     23          8           0       -2.441999    1.532509    0.358249
     24          1           0       -2.057578    2.383532    0.636332
     25          8           0        3.475186    0.374434   -1.013753
     26          1           0        3.662415    1.324436   -1.028166
     27          1           0        2.496576    0.302197   -1.094194
     28          8           0        3.511200   -0.982717    1.356925
     29          1           0        3.817745   -0.410714    2.075944
     30          1           0        3.678030   -0.471868    0.525660
 ---------------------------------------------------------------------

 SCF Done:  E(RB3LYP) =  -839.995131676     A.U. after    1 cycles

 The electronic state is 1-A.
 Alpha  occ. eigenvalues --  -19.18182 -19.17116 -19.16182 -19.15027 -19.14679
 Alpha  occ. eigenvalues --  -19.14615 -19.13574 -19.13423 -10.28613 -10.25510
 Alpha  occ. eigenvalues --  -10.25018 -10.23480 -10.23294 -10.22894  -1.06927
 Alpha  occ. eigenvalues --   -1.05063  -1.02764  -1.02161  -1.01825  -1.00858
 Alpha  occ. eigenvalues --   -1.00106  -0.99429  -0.78293  -0.76506  -0.69491
 Alpha  occ. eigenvalues --   -0.64653  -0.63064  -0.56205  -0.55040  -0.54835
 Alpha  occ. eigenvalues --   -0.54044  -0.52834  -0.52379  -0.51763  -0.49167
 Alpha  occ. eigenvalues --   -0.47830  -0.46177  -0.44546  -0.43643  -0.41868
 Alpha  occ. eigenvalues --   -0.41421  -0.40926  -0.39916  -0.38953  -0.37563
 Alpha  occ. eigenvalues --   -0.37022  -0.35810  -0.35147  -0.33379  -0.32427
 Alpha  occ. eigenvalues --   -0.31506  -0.30748  -0.30074  -0.29391  -0.27551
 Alpha  occ. eigenvalues --   -0.26857  -0.26553  -0.25126
 Alpha virt. eigenvalues --    0.03662   0.04002   0.07114   0.07682   0.09174
 Alpha virt. eigenvalues --    0.10626   0.12076   0.12160   0.13396   0.14205
 Alpha virt. eigenvalues --    0.15378   0.16101   0.17477   0.17896   0.20085

 Mulliken charges:
               1
     1  O   -0.551625
     2  C    0.069837
     3  C    0.110077
     4  C    0.141861
     5  C    0.287705
     6  C    0.127232
     7  H    0.148914
     8  H    0.135053
     9  H    0.159049
    10  H    0.124942
    11  C   -0.068436
    12  H    0.165803
    13  H    0.119035
    14  H    0.164751
    15  O   -0.646885
    16  H    0.436723
    17  O   -0.616735
    18  H    0.403741
    19  O   -0.631560
    20  H    0.392559
    21  O   -0.645008
    22  H    0.404321
    23  O   -0.671494
    24  H    0.410742
    25  O   -0.821340
    26  H    0.396960
    27  H    0.443742
    28  O   -0.817458
    29  H    0.393832
    30  H    0.433663
 Sum of Mulliken charges =   0.00000

 Dipole moment (field-independent basis, Debye):
    X=              2.5989    Y=              3.8408    Z=             -0.9699  Tot=              4.7378
 Quadrupole moment (field-independent basis, Debye-Ang):
   XX=            -85.9923   YY=            -76.2051   ZZ=            -83.9970
   XY=              3.4908   XZ=              3.3753   YZ=             -0.4152

  Exact polarizability: 102.059  -1.089  99.626  -0.791  -0.774  82.373
 Approx polarizability: 130.472  -5.320 129.113  -1.083  -2.271 124.690

 ******    1 imaginary frequencies (negative Signs) ******

                      1                      2                      3
                      A                      A                      A
 Frequencies --    -22.9551                23.5459                46.7173
 Red. masses --      5.1407                 4.5160                 5.6897
 Frc consts  --      0.0016                 0.0015                 0.0073
 IR Inten    --      0.3671                 8.1880                 3.7081

                      4                      5                      6
                      A                      A                      A
 Frequencies --     79.7722                82.1295               133.4808
 Red. masses --      7.5780                 5.6691                 5.8979
 Frc consts  --      0.0284                 0.0225                 0.0619
 IR Inten    --      0.4766                 2.6726                 5.6549

                      7                      8                      9
                      A                      A                      A
 Frequencies --    152.4588               164.0492               177.6687
 Red. masses --      3.1962                 5.3961                 5.9922
 Frc consts  --      0.0438                 0.0856                 0.1114
 IR Inten    --      2.1676                22.3336                 1.0822

                     10                     11                     12
                      A                      A                      A
 Frequencies --    215.9965               238.5962               259.8189
 Red. masses --      3.7781                 1.0975                 4.5951
 Frc consts  --      0.1039                 0.0368                 0.1828
 IR Inten    --     15.0110                52.5324                 0.4233

                     13                     14                     15
                      A                      A                      A
 Frequencies --    263.3690               274.4807               288.6921
 Red. masses --      3.4853                 2.6284                 2.6055
 Frc consts  --      0.1424                 0.1167                 0.1279
 IR Inten    --     49.1733                 5.7676                19.4436

                     16                     17                     18
                      A                      A                      A
 Frequencies --    302.1798               315.3245               327.9834
 Red. masses --      1.3424                 1.7752                 1.3301
 Frc consts  --      0.0722                 0.1040                 0.0843
 IR Inten    --    120.7651                45.5715               164.6339

                     19                     20                     21
                      A                      A                      A
 Frequencies --    364.7251               374.7462               402.1809
 Red. masses --      5.6428                 3.8559                 2.2029
 Frc consts  --      0.4423                 0.3190                 0.2099
 IR Inten    --      3.2607                49.7740                75.8273

                     22                     23                     24
                      A                      A                      A
 Frequencies --    421.1107               437.0010               459.7566
 Red. masses --      1.7580                 1.3132                 2.5743
 Frc consts  --      0.1837                 0.1478                 0.3206
 IR Inten    --     25.0629               152.3575                26.6148

                     25                     26                     27
                      A                      A                      A
 Frequencies --    475.1719               525.1117               531.2386
 Red. masses --      4.2766                 2.0398                 1.8163
 Frc consts  --      0.5689                 0.3314                 0.3020
 IR Inten    --     12.8116                70.6680                46.1500

                     28                     29                     30
                      A                      A                      A
 Frequencies --    541.1186               578.1289               599.1106
 Red. masses --      2.9245                 3.5393                 2.9681
 Frc consts  --      0.5045                 0.6970                 0.6277
 IR Inten    --     70.3798                 2.0463                14.4131

                     31                     32                     33
                      A                      A                      A
 Frequencies --    626.1690               637.5501               764.6333
 Red. masses --      1.1380                 1.2995                 1.0648
 Frc consts  --      0.2629                 0.3112                 0.3668
 IR Inten    --     94.6412                70.8330                81.2935

                     34                     35                     36
                      A                      A                      A
 Frequencies --    798.9072               868.5808               908.9101
 Red. masses --      6.7312                 2.8386                 1.7307
 Frc consts  --      2.5312                 1.2618                 0.8424
 IR Inten    --     84.1476                57.2062                24.2401

                     37                     38                     39
                      A                      A                      A
 Frequencies --    925.4325               976.5450              1021.7066
 Red. masses --      1.1887                 3.4437                 3.4543
 Frc consts  --      0.5998                 1.9349                 2.1245
 IR Inten    --    270.4903                26.8048                59.0775

                     40                     41                     42
                      A                      A                      A
 Frequencies --   1040.6322              1059.5136              1071.4418
 Red. masses --      3.2044                 4.8479                 4.8825
 Frc consts  --      2.0445                 3.2064                 3.3024
 IR Inten    --     60.5149               197.3529                64.0375

                     43                     44                     45
                      A                      A                      A
 Frequencies --   1087.0661              1106.1247              1122.2679
 Red. masses --      2.9409                 2.6164                 3.1582
 Frc consts  --      2.0476                 1.8861                 2.3436
 IR Inten    --     29.6481                31.0038                86.9237

                     46                     47                     48
                      A                      A                      A
 Frequencies --   1131.0478              1148.0095              1168.6325
 Red. masses --      3.0334                 3.1681                 4.0228
 Frc consts  --      2.2863                 2.4600                 3.2369
 IR Inten    --     48.2817                37.1577                57.3967

                     49                     50                     51
                      A                      A                      A
 Frequencies --   1199.2388              1237.7734              1272.4798
 Red. masses --      1.3533                 1.1435                 1.2112
 Frc consts  --      1.1467                 1.0323                 1.1555
 IR Inten    --     14.0596                34.5816                48.9296

                     52                     53                     54
                      A                      A                      A
 Frequencies --   1299.2859              1321.6078              1336.0700
 Red. masses --      1.1359                 1.2015                 1.1756
 Frc consts  --      1.1298                 1.2365                 1.2364
 IR Inten    --     45.8095                 5.4300                 9.5477

                     55                     56                     57
                      A                      A                      A
 Frequencies --   1348.8642              1354.0611              1386.1397
 Red. masses --      1.4057                 1.2233                 1.2292
 Frc consts  --      1.5069                 1.3214                 1.3915
 IR Inten    --     22.0421                 0.7014                29.4684

                     58                     59                     60
                      A                      A                      A
 Frequencies --   1400.4296              1402.8264              1410.0425
 Red. masses --      1.3006                 1.2487                 1.2621
 Frc consts  --      1.5028                 1.4478                 1.4785
 IR Inten    --     53.5363                63.3154                 8.0006

                     61                     62                     63
                      A                      A                      A
 Frequencies --   1422.3285              1434.7997              1465.8385
 Red. masses --      1.3145                 1.4032                 1.6508
 Frc consts  --      1.5668                 1.7020                 2.0898
 IR Inten    --      8.9714                24.9960                 7.5626

                     64                     65                     66
                      A                      A                      A
 Frequencies --   1483.0514              1533.9035              1553.2117
 Red. masses --      1.5478                 1.0885                 1.2830
 Frc consts  --      2.0057                 1.5089                 1.8236
 IR Inten    --     17.0511                 0.8722                40.8226

                     67                     68                     69
                      A                      A                      A
 Frequencies --   1739.3809              1747.6100              3009.3345
 Red. masses --      1.0728                 1.0718                 1.0754
 Frc consts  --      1.9122                 1.9286                 5.7381
 IR Inten    --     52.6522                62.2702                60.4448

                     70                     71                     72
                      A                      A                      A
 Frequencies --   3012.0902              3019.3445              3034.2359
 Red. masses --      1.0811                 1.0803                 1.0864
 Frc consts  --      5.7788                 5.8024                 5.8928
 IR Inten    --     20.1916                42.0699                55.2625

                     73                     74                     75
                      A                      A                      A
 Frequencies --   3066.2248              3070.2451              3120.0431
 Red. masses --      1.0858                 1.0851                 1.0959
 Frc consts  --      6.0144                 6.0267                 6.2856
 IR Inten    --     14.2971                33.7584                25.3290

                     76                     77                     78
                      A                      A                      A
 Frequencies --   3316.3283              3429.4991              3514.8751
 Red. masses --      1.0674                 1.0617                 1.0584
 Frc consts  --      6.9165                 7.3570                 7.7037
 IR Inten    --    536.5669               843.4912               640.1735

                     79                     80                     81
                      A                      A                      A
 Frequencies --   3676.3082              3721.2568              3731.7915
 Red. masses --      1.0656                 1.0653                 1.0661
 Frc consts  --      8.4856                 8.6920                 8.7474
 IR Inten    --    115.1192                26.9307                24.0075

                     82                     83                     84
                      A                      A                      A
 Frequencies --   3741.5597              3801.7732              3807.1471
 Red. masses --      1.0661                 1.0682                 1.0696
 Frc consts  --      8.7935                 9.0967                 9.1339
 IR Inten    --     13.5031                43.5041                66.2456

 - Thermochemistry -
 -------------------
 Temperature   298.150 Kelvin.  Pressure   1.00000 Atm.
 Atom     1 has atomic number  8 and mass  15.99491

 Molecular mass:   216.08452 amu.
 Principal axes and moments of inertia in atomic units:
                           1         2         3
     Eigenvalues --  2619.515003552.958434957.97347
           X            0.99997   0.00698   0.00429
           Y           -0.00696   0.99997  -0.00447
           Z           -0.00432   0.00444   0.99998
 This molecule is an asymmetric top.
 Rotational symmetry number  1.
 Warning -- assumption of classical behavior for rotation
           may cause significant error
 Rotational temperatures (Kelvin)      0.03306     0.02438     0.01747
 Rotational constants (GHZ):           0.68896     0.50795     0.36401
    1 imaginary frequencies ignored.
 Zero-point vibrational energy     651604.9 (Joules/Mol)
                                  155.73731 (Kcal/Mol)
 Warning -- explicit consideration of  29 degrees of freedom as
           vibrations may cause significant error
 Vibrational temperatures:     33.88    67.22   114.77   118.17   192.05
          (Kelvin)            219.35   236.03   255.63   310.77   343.29
                              373.82   378.93   394.92   415.36   434.77
                              453.68   471.89   524.76   539.18   578.65
                              605.88   628.75   661.49   683.67   755.52
                              764.33   778.55   831.80   861.99   900.92
                              917.29  1100.14  1149.45  1249.69  1307.72
                             1331.49  1405.03  1470.01  1497.24  1524.40
                             1541.56  1564.04  1591.46  1614.69  1627.32
                             1651.73  1681.40  1725.43  1780.88  1830.81
                             1869.38  1901.50  1922.30  1940.71  1948.19
                             1994.34  2014.90  2018.35  2028.73  2046.41
                             2064.35  2109.01  2133.78  2206.94  2234.72
                             2502.58  2514.42  4329.76  4333.72  4344.16
                             4365.58  4411.61  4417.39  4489.04  4771.45
                             4934.28  5057.12  5289.38  5354.05  5369.21
                             5383.26  5469.90  5477.63

 Zero-point correction=                           0.248183 (Hartree/Particle)
 Thermal correction to Energy=                    0.264952
 Thermal correction to Enthalpy=                  0.265896
 Thermal correction to Gibbs Free Energy=         0.204327
 Sum of electronic and zero-point Energies=           -839.746948
 Sum of electronic and thermal Energies=              -839.730179
 Sum of electronic and thermal Enthalpies=            -839.729235
 Sum of electronic and thermal Free Energies=         -839.790805

                     E (Thermal)             CV                S
                      KCal/Mol        Cal/Mol-Kelvin    Cal/Mol-Kelvin
 Total                  166.260             62.742            129.584
 Electronic               0.000              0.000              0.000
 Translational            0.889              2.981             42.015
 Rotational               0.889              2.981             32.201
 Vibrational            164.483             56.780             55.368
 Vibration     1          0.593              1.985              6.310
 Vibration     2          0.595              1.979              4.952
 Vibration     3          0.600              1.963              3.896
 Vibration     4          0.600              1.961              3.839
 Vibration     5          0.613              1.920              2.895
 Vibration     6          0.619              1.900              2.641
 Vibration     7          0.623              1.887              2.503
 Vibration     8          0.628              1.870              2.353
 Vibration     9          0.645              1.817              1.992
 Vibration    10          0.657              1.781              1.813
 Vibration    11          0.668              1.746              1.663
 Vibration    12          0.670              1.740              1.639
 Vibration    13          0.677              1.720              1.568
 Vibration    14          0.685              1.695              1.482
 Vibration    15          0.694              1.670              1.405
 Vibration    16          0.703              1.644              1.334
 Vibration    17          0.711              1.620              1.270
 Vibration    18          0.738              1.545              1.102
 Vibration    19          0.746              1.524              1.060
 Vibration    20          0.768              1.465              0.955
 Vibration    21          0.784              1.424              0.888
 Vibration    22          0.797              1.390              0.836
 Vibration    23          0.818              1.339              0.767
 Vibration    24          0.832              1.305              0.723
 Vibration    25          0.880              1.194              0.598
 Vibration    26          0.886              1.181              0.584
 Vibration    27          0.896              1.159              0.563
 Vibration    28          0.935              1.079              0.489
 Vibration    29          0.957              1.034              0.451

 Normal termination of Gaussian 09 at Thu Jan 19 22:31:27 2017.
