 Gaussian 09, Revision E.01,
 Gaussian 09:  ES64L-G09RevE.01 30-Nov-2015

 ----------------------------------------------------------------------
 # opt=(calcfc,ts,noeigentest,maxcycle=1000,cartesian) freq b3lyp/6-31g
 (d)
 ----------------------------------------------------------------------

 -------------------------
 boat4_Alpha_B3LYP_6-31G_d
 -------------------------
 Symbolic Z-matrix:
 Charge =  0 Multiplicity = 1

 SCF Done:  E(RB3LYP) =  -839.961540602     A.U. after   14 cycles
 SCF Done:  E(RB3LYP) =  -839.961546079     A.U. after    8 cycles
 SCF Done:  E(RB3LYP) =  -839.961546095     A.U. after    6 cycles
 Optimization completed.
    -- Stationary point found.
 Normal termination of Gaussian 09 at Thu Jan 12 02:42:04 2017.

 --------------------------------------------------------------------
 #N Geom=AllCheck Guess=TCheck SCRF=Check GenChk RB3LYP/6-31G(d) Freq
 --------------------------------------------------------------------

 Structure from the checkpoint file:  "/scratch/10453029.yak.local/Gau-2349.chk"
 -------------------------
 boat4_Alpha_B3LYP_6-31G_d
 -------------------------
 Charge =  0 Multiplicity = 1

                         Standard orientation:
 ---------------------------------------------------------------------
 Center     Atomic      Atomic             Coordinates (Angstroms)
 Number     Number       Type             X           Y           Z
 ---------------------------------------------------------------------
      1          8           0       -0.626483    0.322533    0.560673
      2          6           0        1.666915    0.182524   -0.246974
      3          6           0        0.250591   -1.931647   -0.199200
      4          6           0        1.581864   -1.275651    0.206372
      5          6           0       -0.877477   -0.930342   -0.514080
      6          6           0        0.606356    1.046021    0.457788
      7          1           0        1.634100   -1.299941    1.305640
      8          1           0        0.969430    1.219879    1.481650
      9          1           0        1.520974    0.221329   -1.338733
     10          6           0        0.403475    2.395791   -0.246657
     11          1           0        0.069208    2.232835   -1.276409
     12          1           0       -0.366202    2.990012    0.263527
     13          1           0        0.436397   -2.476627   -1.141752
     14          8           0        1.637504    3.120060   -0.345309
     15          1           0        1.833457    3.489309    0.530561
     16          8           0       -0.179306   -2.808116    0.816674
     17          1           0       -1.155290   -2.790157    0.742909
     18          8           0        2.648198   -2.014648   -0.367545
     19          1           0        3.444748   -1.474879   -0.224059
     20          8           0        2.975070    0.646270    0.072755
     21          1           0        3.022784    1.556410   -0.272209
     22          1           0       -0.725394   -0.393184   -1.464169
     23          8           0       -2.065748   -1.400102   -0.287708
     24          8           0       -3.775146    0.241444   -0.876618
     25          1           0       -3.054838   -0.584288   -0.711876
     26          1           0       -3.335417    1.009644    0.067454
     27          1           0       -4.660765   -0.106871   -0.689372
     28          8           0       -2.700595    1.542682    0.863431
     29          1           0       -1.672784    0.975548    0.756512
     30          1           0       -3.058698    1.309824    1.735997
 ---------------------------------------------------------------------

 SCF Done:  E(RB3LYP) =  -839.961546095     A.U. after    1 cycles

 The electronic state is 1-A.
 Alpha  occ. eigenvalues --  -19.18919 -19.18105 -19.17339 -19.16247 -19.15132
 Alpha  occ. eigenvalues --  -19.12817 -19.11675 -19.11349 -10.28421 -10.25274
 Alpha  occ. eigenvalues --  -10.25249 -10.24076 -10.22559 -10.22309  -1.06603
 Alpha  occ. eigenvalues --   -1.05095  -1.03668  -1.02815  -1.01758  -1.00393
 Alpha  occ. eigenvalues --   -0.99409  -0.97369  -0.77821  -0.75169  -0.68746
 Alpha  occ. eigenvalues --   -0.63560  -0.62505  -0.57480  -0.55865  -0.55277
 Alpha  occ. eigenvalues --   -0.53729  -0.53385  -0.52576  -0.50385  -0.49534
 Alpha  occ. eigenvalues --   -0.48782  -0.46031  -0.45397  -0.44326  -0.42922
 Alpha  occ. eigenvalues --   -0.41397  -0.41127  -0.39859  -0.38928  -0.37331
 Alpha  occ. eigenvalues --   -0.37015  -0.36311  -0.34655  -0.33106  -0.32767
 Alpha  occ. eigenvalues --   -0.32379  -0.30810  -0.29080  -0.27747  -0.26900
 Alpha  occ. eigenvalues --   -0.25948  -0.25632  -0.23590
 Alpha virt. eigenvalues --    0.03413   0.04302   0.06894   0.08228   0.08481
 Alpha virt. eigenvalues --    0.09294   0.11470   0.12767   0.13613   0.14624
 Alpha virt. eigenvalues --    0.15795   0.16461   0.17206   0.18277   0.19270

 Mulliken charges:
               1
     1  O   -0.650515
     2  C    0.077872
     3  C    0.132024
     4  C    0.145697
     5  C    0.340141
     6  C    0.135900
     7  H    0.139544
     8  H    0.134641
     9  H    0.123966
    10  C   -0.086139
    11  H    0.164826
    12  H    0.155153
    13  H    0.141363
    14  O   -0.618183
    15  H    0.403548
    16  O   -0.653812
    17  H    0.407392
    18  O   -0.647524
    19  H    0.406976
    20  O   -0.668742
    21  H    0.411130
    22  H    0.115554
    23  O   -0.678717
    24  O   -0.833808
    25  H    0.460884
    26  H    0.461345
    27  H    0.403452
    28  O   -0.820123
    29  H    0.483232
    30  H    0.412923
 Sum of Mulliken charges =  -0.00000

 Dipole moment (field-independent basis, Debye):
    X=             -3.2270    Y=              5.0694    Z=              1.8353  Tot=              6.2834
 Quadrupole moment (field-independent basis, Debye-Ang):
   XX=            -70.3683   YY=            -92.9949   ZZ=            -81.4562
   XY=              7.4574   XZ=             -4.9683   YZ=              8.3154

  Exact polarizability: 117.584   2.778 100.918   0.803   3.673  78.422
 Approx polarizability: 151.179   6.922 132.303   1.322   4.358 121.851

 ******    1 imaginary frequencies (negative Signs) ******

                      1                      2                      3
                      A                      A                      A
 Frequencies --  -1150.0943                35.4142                52.4628
 Red. masses --      1.1456                 6.0128                 4.9568
 Frc consts  --      0.8928                 0.0044                 0.0080
 IR Inten    --    522.6820                 0.4937                 4.0062

                      4                      5                      6
                      A                      A                      A
 Frequencies --     60.4933                88.1432               105.5055
 Red. masses --      6.2720                 6.5553                 6.4170
 Frc consts  --      0.0135                 0.0300                 0.0421
 IR Inten    --      2.5467                 3.4966                 1.2697

                      7                      8                      9
                      A                      A                      A
 Frequencies --    132.5898               154.4409               217.4509
 Red. masses --      4.2826                 4.5721                 3.4235
 Frc consts  --      0.0444                 0.0643                 0.0954
 IR Inten    --      1.8199                 2.3280                13.7103

                     10                     11                     12
                      A                      A                      A
 Frequencies --    246.4687               263.9526               276.8149
 Red. masses --      6.4360                 5.8300                 4.5457
 Frc consts  --      0.2304                 0.2393                 0.2052
 IR Inten    --     21.1874                18.3134                 7.7807

                     13                     14                     15
                      A                      A                      A
 Frequencies --    288.2131               307.2961               312.0290
 Red. masses --      4.7769                 3.6319                 1.2702
 Frc consts  --      0.2338                 0.2021                 0.0729
 IR Inten    --     25.3406                 4.1706               123.2892

                     16                     17                     18
                      A                      A                      A
 Frequencies --    363.2042               375.5758               415.7443
 Red. masses --      4.6902                 5.0650                 4.0448
 Frc consts  --      0.3645                 0.4209                 0.4119
 IR Inten    --      9.8589               110.5106               106.9473

                     19                     20                     21
                      A                      A                      A
 Frequencies --    445.7894               456.6259               463.7244
 Red. masses --      1.6713                 1.3314                 1.5247
 Frc consts  --      0.1957                 0.1636                 0.1932
 IR Inten    --     58.8344               127.7117                81.4919

                     22                     23                     24
                      A                      A                      A
 Frequencies --    482.4043               495.1219               510.6555
 Red. masses --      2.7309                 1.4239                 2.2710
 Frc consts  --      0.3744                 0.2057                 0.3489
 IR Inten    --     28.3173               125.9226               147.5026

                     25                     26                     27
                      A                      A                      A
 Frequencies --    540.7907               547.8974               562.0119
 Red. masses --      2.0879                 2.8246                 3.2031
 Frc consts  --      0.3598                 0.4996                 0.5961
 IR Inten    --    100.8752                67.2037                34.4721

                     28                     29                     30
                      A                      A                      A
 Frequencies --    601.8725               623.2363               628.3643
 Red. masses --      1.3349                 2.9562                 1.2932
 Frc consts  --      0.2849                 0.6765                 0.3008
 IR Inten    --    113.2570               133.5787               157.9391

                     31                     32                     33
                      A                      A                      A
 Frequencies --    641.9286               743.7266               799.0910
 Red. masses --      2.5237                 4.1407                 1.6836
 Frc consts  --      0.6127                 1.3494                 0.6334
 IR Inten    --     65.5607                68.0743                79.8142

                     34                     35                     36
                      A                      A                      A
 Frequencies --    836.1575               896.8675               912.3784
 Red. masses --      3.0255                 2.2446                 2.3098
 Frc consts  --      1.2463                 1.0637                 1.1329
 IR Inten    --    193.5068                99.3104                72.9088

                     37                     38                     39
                      A                      A                      A
 Frequencies --   1018.2067              1044.5241              1051.9640
 Red. masses --      3.7832                 2.4945                 4.0592
 Frc consts  --      2.3109                 1.6035                 2.6466
 IR Inten    --     44.9723               265.4533               140.5187

                     40                     41                     42
                      A                      A                      A
 Frequencies --   1055.5610              1081.0192              1096.0752
 Red. masses --      2.7955                 2.2685                 1.8289
 Frc consts  --      1.8352                 1.5619                 1.2946
 IR Inten    --    337.8799                18.6578               114.7545

                     43                     44                     45
                      A                      A                      A
 Frequencies --   1110.1706              1123.8111              1137.0729
 Red. masses --      3.2087                 2.1655                 2.5686
 Frc consts  --      2.3300                 1.6113                 1.9567
 IR Inten    --    123.6494               110.3001                 5.7771

                     46                     47                     48
                      A                      A                      A
 Frequencies --   1149.6546              1196.7982              1239.9147
 Red. masses --      3.9343                 1.4447                 1.2227
 Frc consts  --      3.0638                 1.2192                 1.1076
 IR Inten    --     36.9470                11.2388                52.6201

                     49                     50                     51
                      A                      A                      A
 Frequencies --   1266.1822              1292.9002              1308.9092
 Red. masses --      1.2286                 1.1329                 1.1932
 Frc consts  --      1.1605                 1.1158                 1.2045
 IR Inten    --    152.5192               231.8628               217.4777

                     52                     53                     54
                      A                      A                      A
 Frequencies --   1317.8846              1332.0085              1354.6686
 Red. masses --      1.2139                 1.3731                 1.2866
 Frc consts  --      1.2422                 1.4354                 1.3911
 IR Inten    --    372.8573               724.6083               138.4079

                     55                     56                     57
                      A                      A                      A
 Frequencies --   1364.9233              1380.7233              1384.3316
 Red. masses --      1.1905                 1.1893                 1.2067
 Frc consts  --      1.3068                 1.3358                 1.3625
 IR Inten    --    201.8506               120.3124               879.6914

                     58                     59                     60
                      A                      A                      A
 Frequencies --   1401.0659              1414.1978              1426.1920
 Red. masses --      1.3291                 1.2207                 1.3147
 Frc consts  --      1.5372                 1.4384                 1.5756
 IR Inten    --    195.4223                78.5281                14.2740

                     61                     62                     63
                      A                      A                      A
 Frequencies --   1433.3816              1449.7344              1465.1577
 Red. masses --      1.4372                 1.5346                 1.4686
 Frc consts  --      1.7398                 1.9003                 1.8575
 IR Inten    --     97.4740               728.6932                28.7784

                     64                     65                     66
                      A                      A                      A
 Frequencies --   1485.7943              1516.9041              1535.9593
 Red. masses --      1.6902                 1.4109                 1.0891
 Frc consts  --      2.1984                 1.9128                 1.5138
 IR Inten    --    104.9708               479.6091                 1.6546

                     67                     68                     69
                      A                      A                      A
 Frequencies --   1552.1053              1633.7299              1761.6577
 Red. masses --      1.1271                 1.0944                 1.0527
 Frc consts  --      1.5998                 1.7211                 1.9248
 IR Inten    --   1244.8402               176.9188               486.1635

                     70                     71                     72
                      A                      A                      A
 Frequencies --   1863.5258              1897.2320              2971.7339
 Red. masses --      1.0387                 1.1067                 1.0822
 Frc consts  --      2.1254                 2.3470                 5.6307
 IR Inten    --     64.9514              2205.0933                21.4754

                     73                     74                     75
                      A                      A                      A
 Frequencies --   2984.5654              3002.2911              3016.3505
 Red. masses --      1.0841                 1.0845                 1.0844
 Frc consts  --      5.6894                 5.7597                 5.8129
 IR Inten    --     15.4914                54.4145                15.6735

                     76                     77                     78
                      A                      A                      A
 Frequencies --   3026.2926              3049.5587              3113.6903
 Red. masses --      1.0863                 1.0636                 1.1038
 Frc consts  --      5.8617                 5.8276                 6.3051
 IR Inten    --    103.2414                40.8498                29.5254

                     79                     80                     81
                      A                      A                      A
 Frequencies --   3599.9434              3677.7163              3711.1813
 Red. masses --      1.0640                 1.0656                 1.0650
 Frc consts  --      8.1240                 8.4917                 8.6425
 IR Inten    --     78.4529               112.3368                31.5129

                     82                     83                     84
                      A                      A                      A
 Frequencies --   3740.3751              3766.5846              3784.1498
 Red. masses --      1.0663                 1.0648                 1.0652
 Frc consts  --      8.7896                 8.9002                 8.9869
 IR Inten    --     26.6264                46.7709                43.9515

 - Thermochemistry -
 -------------------
 Temperature   298.150 Kelvin.  Pressure   1.00000 Atm.
 Atom     1 has atomic number  8 and mass  15.99491

 Molecular mass:   216.08452 amu.
 Principal axes and moments of inertia in atomic units:
                           1         2         3
     Eigenvalues --  2517.087723404.577185421.81335
           X            1.00000   0.00020  -0.00119
           Y           -0.00019   0.99997   0.00761
           Z            0.00119  -0.00761   0.99997
 This molecule is an asymmetric top.
 Rotational symmetry number  1.
 Warning -- assumption of classical behavior for rotation
           may cause significant error
 Rotational temperatures (Kelvin)      0.03441     0.02544     0.01598
 Rotational constants (GHZ):           0.71700     0.53009     0.33287
    1 imaginary frequencies ignored.
 Zero-point vibrational energy     630867.5 (Joules/Mol)
                                  150.78096 (Kcal/Mol)
 Warning -- explicit consideration of  27 degrees of freedom as
           vibrations may cause significant error
 Vibrational temperatures:     50.95    75.48    87.04   126.82   151.80
          (Kelvin)            190.77   222.21   312.86   354.61   379.77
                              398.27   414.67   442.13   448.94   522.57
                              540.37   598.16   641.39   656.98   667.20
                              694.07   712.37   734.72   778.08   788.30
                              808.61   865.96   896.70   904.07   923.59
                             1070.06  1149.71  1203.04  1290.39  1312.71
                             1464.97  1502.84  1513.54  1518.71  1555.34
                             1577.01  1597.29  1616.91  1635.99  1654.09
                             1721.92  1783.96  1821.75  1860.19  1883.23
                             1896.14  1916.46  1949.06  1963.82  1986.55
                             1991.74  2015.82  2034.71  2051.97  2062.31
                             2085.84  2108.03  2137.72  2182.48  2209.90
                             2233.13  2350.57  2534.63  2681.19  2729.69
                             4275.66  4294.12  4319.62  4339.85  4354.15
                             4387.63  4479.90  5179.51  5291.41  5339.56
                             5381.56  5419.27  5444.54

 Zero-point correction=                           0.240285 (Hartree/Particle)
 Thermal correction to Energy=                    0.256004
 Thermal correction to Enthalpy=                  0.256948
 Thermal correction to Gibbs Free Energy=         0.197401
 Sum of electronic and zero-point Energies=           -839.721261
 Sum of electronic and thermal Energies=              -839.705542
 Sum of electronic and thermal Enthalpies=            -839.704598
 Sum of electronic and thermal Free Energies=         -839.764145

                     E (Thermal)             CV                S
                      KCal/Mol        Cal/Mol-Kelvin    Cal/Mol-Kelvin
 Total                  160.645             59.800            125.327
 Electronic               0.000              0.000              0.000
 Translational            0.889              2.981             42.015
 Rotational               0.889              2.981             32.208
 Vibrational            158.868             53.838             51.105
 Vibration     1          0.594              1.982              5.500
 Vibration     2          0.596              1.977              4.722
 Vibration     3          0.597              1.973              4.441
 Vibration     4          0.601              1.958              3.701
 Vibration     5          0.605              1.945              3.350
 Vibration     6          0.613              1.921              2.908
 Vibration     7          0.620              1.898              2.617
 Vibration     8          0.646              1.814              1.980
 Vibration     9          0.661              1.769              1.756
 Vibration    10          0.671              1.739              1.635
 Vibration    11          0.678              1.716              1.553
 Vibration    12          0.685              1.696              1.484
 Vibration    13          0.697              1.660              1.377
 Vibration    14          0.700              1.651              1.352
 Vibration    15          0.737              1.548              1.108
 Vibration    16          0.746              1.522              1.057
 Vibration    17          0.779              1.436              0.907
 Vibration    18          0.805              1.370              0.809
 Vibration    19          0.815              1.346              0.776
 Vibration    20          0.821              1.331              0.755
 Vibration    21          0.839              1.289              0.704
 Vibration    22          0.851              1.261              0.670
 Vibration    23          0.866              1.226              0.632
 Vibration    24          0.896              1.160              0.564
 Vibration    25          0.903              1.144              0.549
 Vibration    26          0.918              1.113              0.520
 Vibration    27          0.960              1.028              0.446

 Optimization completed.
    -- Stationary point found.
 Normal termination of Gaussian 09 at Thu Jan 12 02:59:05 2017.
