 Gaussian 09, Revision E.01,
 Gaussian 09:  ES64L-G09RevE.01 30-Nov-2015

 ----------------------------------------------------------------------
 # opt=(calcfc,ts,noeigentest,maxcycle=1000,cartesian) b3lyp 6-31g(d) f
 req
 ----------------------------------------------------------------------

 ------------------------
 boat4_Beta_B3LYP_6-31G_d
 ------------------------
 Symbolic Z-matrix:
 Charge =  0 Multiplicity = 1

 SCF Done:  E(RB3LYP) =  -839.950782479     A.U. after   14 cycles
 SCF Done:  E(RB3LYP) =  -839.950912693     A.U. after   11 cycles
 SCF Done:  E(RB3LYP) =  -839.950978200     A.U. after   11 cycles
 SCF Done:  E(RB3LYP) =  -839.950966759     A.U. after   11 cycles
 SCF Done:  E(RB3LYP) =  -839.950917360     A.U. after   11 cycles
 SCF Done:  E(RB3LYP) =  -839.950944174     A.U. after   11 cycles
 SCF Done:  E(RB3LYP) =  -839.950793399     A.U. after   11 cycles
 SCF Done:  E(RB3LYP) =  -839.950838777     A.U. after   11 cycles
 SCF Done:  E(RB3LYP) =  -839.950742134     A.U. after   11 cycles
 SCF Done:  E(RB3LYP) =  -839.950674211     A.U. after   11 cycles
 SCF Done:  E(RB3LYP) =  -839.951039556     A.U. after    7 cycles
 SCF Done:  E(RB3LYP) =  -839.951038931     A.U. after    7 cycles
 SCF Done:  E(RB3LYP) =  -839.951039406     A.U. after    7 cycles
 SCF Done:  E(RB3LYP) =  -839.951039521     A.U. after    7 cycles
 SCF Done:  E(RB3LYP) =  -839.951039685     A.U. after    6 cycles
 SCF Done:  E(RB3LYP) =  -839.951022498     A.U. after   11 cycles
 SCF Done:  E(RB3LYP) =  -839.951040251     A.U. after   11 cycles
 SCF Done:  E(RB3LYP) =  -839.951039431     A.U. after    9 cycles
 SCF Done:  E(RB3LYP) =  -839.951039665     A.U. after    7 cycles
 Optimization completed.
    -- Stationary point found.
 Normal termination of Gaussian 09 at Thu Jan 12 00:23:38 2017.

 --------------------------------------------------------------------
 #N Geom=AllCheck Guess=TCheck SCRF=Check GenChk RB3LYP/6-31G(d) Freq
 --------------------------------------------------------------------

 Structure from the checkpoint file:  "/scratch/10452970.yak.local/Gau-11582.chk"
 ------------------------
 boat4_Beta_B3LYP_6-31G_d
 ------------------------
 Charge =  0 Multiplicity = 1

                         Standard orientation:
 ---------------------------------------------------------------------
 Center     Atomic      Atomic             Coordinates (Angstroms)
 Number     Number       Type             X           Y           Z
 ---------------------------------------------------------------------
      1          8           0       -1.724449    0.292502    0.437791
      2          6           0        0.654943    0.389879   -0.153565
      3          6           0       -0.254552   -1.814687    0.823217
      4          6           0        0.982536   -1.042918    0.322860
      5          6           0       -1.537809   -1.466813    0.085797
      6          6           0       -0.515492    1.030384    0.619045
      7          1           0        1.632084   -0.933457    1.206185
      8          1           0       -0.272003    1.016815    1.690121
      9          1           0        0.387449    0.330776   -1.218500
     10          1           0       -2.453889   -1.694535    0.660132
     11          6           0       -0.806869    2.478888    0.186270
     12          1           0       -0.999002    2.517305   -0.891496
     13          1           0       -1.707830    2.835339    0.702250
     14          1           0       -0.055357   -2.880216    0.633964
     15          8           0       -1.565266   -1.613902   -1.190564
     16          8           0        0.295735    3.369949    0.399679
     17          1           0        0.424102    3.461882    1.357988
     18          8           0       -0.373226   -1.546280    2.218243
     19          1           0       -1.209133   -1.926340    2.531825
     20          8           0        1.597030   -1.813429   -0.681889
     21          1           0        2.473841   -1.411544   -0.882988
     22          8           0        1.848431    1.171419    0.022729
     23          1           0        1.602772    2.114375   -0.068270
     24          8           0       -2.935989    0.279998   -1.630398
     25          1           0       -2.345958    0.519137   -0.597721
     26          1           0       -2.408310   -0.767097   -1.619416
     27          1           0       -2.553330    0.780463   -2.369337
     28          8           0        3.922442   -0.308353   -1.010520
     29          1           0        4.493382   -0.488123   -0.248210
     30          1           0        3.336968    0.421588   -0.708827
 ---------------------------------------------------------------------

 SCF Done:  E(RB3LYP) =  -839.951039665     A.U. after    1 cycles

 The electronic state is 1-A.
 Alpha  occ. eigenvalues --  -19.19105 -19.16717 -19.16717 -19.16053 -19.15643
 Alpha  occ. eigenvalues --  -19.14058 -19.12699 -19.11499 -10.29281 -10.26101
 Alpha  occ. eigenvalues --  -10.25236 -10.24121 -10.24113 -10.23255  -1.06540
 Alpha  occ. eigenvalues --   -1.05758  -1.03325  -1.02843  -1.00429  -1.00140
 Alpha  occ. eigenvalues --   -0.99955  -0.98965  -0.77681  -0.75618  -0.70050
 Alpha  occ. eigenvalues --   -0.64412  -0.63327  -0.56942  -0.55877  -0.55120
 Alpha  occ. eigenvalues --   -0.54461  -0.52120  -0.51557  -0.51000  -0.49225
 Alpha  occ. eigenvalues --   -0.47772  -0.45717  -0.45097  -0.44429  -0.43316
 Alpha  occ. eigenvalues --   -0.41671  -0.40795  -0.39714  -0.39147  -0.38793
 Alpha  occ. eigenvalues --   -0.37283  -0.36179  -0.35668  -0.34413  -0.33030
 Alpha  occ. eigenvalues --   -0.31107  -0.29861  -0.29407  -0.28801  -0.27824
 Alpha  occ. eigenvalues --   -0.26841  -0.25461  -0.24384
 Alpha virt. eigenvalues --    0.01788   0.03899   0.05029   0.06402   0.07726
 Alpha virt. eigenvalues --    0.09911   0.11909   0.12633   0.13627   0.14335
 Alpha virt. eigenvalues --    0.15576   0.16186   0.17278   0.17916   0.19082

 Mulliken charges:
               1
     1  O   -0.656481
     2  C    0.105351
     3  C    0.086895
     4  C    0.137568
     5  C    0.298514
     6  C    0.118415
     7  H    0.135633
     8  H    0.148500
     9  H    0.135081
    10  H    0.120108
    11  C   -0.083266
    12  H    0.146940
    13  H    0.163298
    14  H    0.170050
    15  O   -0.595019
    16  O   -0.619591
    17  H    0.408756
    18  O   -0.634428
    19  H    0.395333
    20  O   -0.668972
    21  H    0.424583
    22  O   -0.696409
    23  H    0.426595
    24  O   -0.829448
    25  H    0.471721
    26  H    0.467104
    27  H    0.405666
    28  O   -0.804530
    29  H    0.392523
    30  H    0.429512
 Sum of Mulliken charges =  -0.00000

 Dipole moment (field-independent basis, Debye):
    X=             -1.0668    Y=              3.5183    Z=              3.0297  Tot=              4.7640
 Quadrupole moment (field-independent basis, Debye-Ang):
   XX=            -85.7475   YY=            -81.4907   ZZ=            -81.6783
   XY=              2.5782   XZ=              4.7440   YZ=             -4.3513

  Exact polarizability: 102.477   0.573 103.019   2.838   0.416  89.920
 Approx polarizability: 133.864   1.204 139.603   3.330   7.476 139.608

 ******    1 imaginary frequencies (negative Signs) ******

                      1                      2                      3
                      A                      A                      A
 Frequencies --  -1459.5125                33.8054                53.9433
 Red. masses --      1.1148                 6.1334                 6.1709
 Frc consts  --      1.3991                 0.0041                 0.0106
 IR Inten    --    252.8142                 0.8862                 3.7758

                      4                      5                      6
                      A                      A                      A
 Frequencies --     83.5733                97.1790               107.9268
 Red. masses --      5.9781                 5.0506                 4.8067
 Frc consts  --      0.0246                 0.0281                 0.0330
 IR Inten    --      0.9765                 5.3565                 1.1291

                      7                      8                      9
                      A                      A                      A
 Frequencies --    155.1180               160.9048               176.4270
 Red. masses --      2.7372                 4.2021                 4.8372
 Frc consts  --      0.0388                 0.0641                 0.0887
 IR Inten    --      0.5472                16.9369                 7.8004

                     10                     11                     12
                      A                      A                      A
 Frequencies --    200.3167               226.2092               259.9360
 Red. masses --      5.8165                 2.4474                 3.0717
 Frc consts  --      0.1375                 0.0738                 0.1223
 IR Inten    --     16.2124                38.2512                27.0200

                     13                     14                     15
                      A                      A                      A
 Frequencies --    262.5402               300.2017               307.8138
 Red. masses --      2.7698                 1.1661                 4.7352
 Frc consts  --      0.1125                 0.0619                 0.2643
 IR Inten    --     56.5486                54.4540                59.4738

                     16                     17                     18
                      A                      A                      A
 Frequencies --    320.9376               346.6093               371.2178
 Red. masses --      1.6837                 1.4524                 2.6226
 Frc consts  --      0.1022                 0.1028                 0.2129
 IR Inten    --     92.7050                80.3842               103.9472

                     19                     20                     21
                      A                      A                      A
 Frequencies --    379.5220               408.2877               424.3202
 Red. masses --      1.9680                 6.0383                 4.0528
 Frc consts  --      0.1670                 0.5931                 0.4299
 IR Inten    --     79.5582                18.1991                 4.1249

                     22                     23                     24
                      A                      A                      A
 Frequencies --    444.9395               495.2505               508.9163
 Red. masses --      4.6856                 3.3726                 3.7885
 Frc consts  --      0.5465                 0.4874                 0.5781
 IR Inten    --     21.2203                43.3570               116.0323

                     25                     26                     27
                      A                      A                      A
 Frequencies --    515.6957               543.3333               547.8226
 Red. masses --      3.6594                 2.5801                 3.3485
 Frc consts  --      0.5734                 0.4488                 0.5921
 IR Inten    --     22.6693                28.2527               155.0699

                     28                     29                     30
                      A                      A                      A
 Frequencies --    579.7045               612.5630               647.9469
 Red. masses --      2.2711                 4.9360                 2.8635
 Frc consts  --      0.4497                 1.0913                 0.7083
 IR Inten    --     12.5694                13.3043                49.8690

                     31                     32                     33
                      A                      A                      A
 Frequencies --    673.3669               716.0293               751.4372
 Red. masses --      1.1319                 1.7518                 1.1005
 Frc consts  --      0.3024                 0.5292                 0.3661
 IR Inten    --     17.7937                35.5323               280.2287

                     34                     35                     36
                      A                      A                      A
 Frequencies --    791.2552               854.7747               896.8466
 Red. masses --      3.8150                 1.1358                 2.0420
 Frc consts  --      1.4073                 0.4890                 0.9677
 IR Inten    --     26.1058               124.9184                20.3480

                     37                     38                     39
                      A                      A                      A
 Frequencies --    936.7920              1007.5954              1038.5210
 Red. masses --      2.2368                 2.5455                 2.1952
 Frc consts  --      1.1566                 1.5226                 1.3949
 IR Inten    --     66.1557                70.4007                20.5707

                     40                     41                     42
                      A                      A                      A
 Frequencies --   1048.6389              1055.4778              1084.8643
 Red. masses --      5.0541                 5.1046                 3.5583
 Frc consts  --      3.2745                 3.3505                 2.4675
 IR Inten    --    243.3692                88.8169                39.6350

                     43                     44                     45
                      A                      A                      A
 Frequencies --   1103.6701              1114.2317              1119.1550
 Red. masses --      4.8121                 2.7147                 1.9726
 Frc consts  --      3.4536                 1.9858                 1.4557
 IR Inten    --    109.0661                82.4502                19.4998

                     46                     47                     48
                      A                      A                      A
 Frequencies --   1136.1346              1195.8787              1207.2907
 Red. masses --      2.8814                 1.5110                 1.3705
 Frc consts  --      2.1914                 1.2731                 1.1770
 IR Inten    --     11.7200               591.0109                41.6605

                     49                     50                     51
                      A                      A                      A
 Frequencies --   1249.1940              1259.3472              1274.2974
 Red. masses --      1.1240                 1.2216                 1.1534
 Frc consts  --      1.0334                 1.1415                 1.1035
 IR Inten    --     25.9126               599.2155              1195.3418

                     52                     53                     54
                      A                      A                      A
 Frequencies --   1284.5177              1308.8841              1345.6601
 Red. masses --      1.2335                 1.1694                 1.2179
 Frc consts  --      1.1991                 1.1803                 1.2994
 IR Inten    --     61.7237                65.8225                11.2753

                     55                     56                     57
                      A                      A                      A
 Frequencies --   1350.9158              1360.1323              1382.0326
 Red. masses --      1.2024                 1.2790                 1.3657
 Frc consts  --      1.2929                 1.3941                 1.5369
 IR Inten    --    397.6787               233.7721                20.3035

                     58                     59                     60
                      A                      A                      A
 Frequencies --   1390.5978              1409.5184              1413.7175
 Red. masses --      1.2983                 1.3172                 1.4144
 Frc consts  --      1.4792                 1.5419                 1.6655
 IR Inten    --    137.8033               263.0649                84.1225

                     61                     62                     63
                      A                      A                      A
 Frequencies --   1424.3634              1439.8632              1474.5746
 Red. masses --      1.2856                 1.3558                 1.3660
 Frc consts  --      1.5368                 1.6561                 1.7500
 IR Inten    --     22.7923               102.6255                23.3419

                     64                     65                     66
                      A                      A                      A
 Frequencies --   1515.0799              1532.2626              1546.3259
 Red. masses --      1.3478                 1.1036                 1.2738
 Frc consts  --      1.8229                 1.5266                 1.7945
 IR Inten    --     75.7047                28.6050               429.5277

                     67                     68                     69
                      A                      A                      A
 Frequencies --   1596.4773              1712.7846              1726.6330
 Red. masses --      1.9689                 1.0785                 1.0754
 Frc consts  --      2.9566                 1.8642                 1.8890
 IR Inten    --    408.3717               148.7607                58.3832

                     70                     71                     72
                      A                      A                      A
 Frequencies --   1940.3175              2968.0180              2998.8391
 Red. masses --      1.0299                 1.0869                 1.0828
 Frc consts  --      2.2846                 5.6414                 5.7370
 IR Inten    --     34.0472               103.8398                24.2797

                     73                     74                     75
                      A                      A                      A
 Frequencies --   3028.7230              3029.9928              3048.4594
 Red. masses --      1.0836                 1.0831                 1.0715
 Frc consts  --      5.8565                 5.8589                 5.8666
 IR Inten    --     18.8883                15.9784                25.9590

                     76                     77                     78
                      A                      A                      A
 Frequencies --   3050.1475              3106.8155              3458.0134
 Red. masses --      1.0753                 1.1059                 1.0664
 Frc consts  --      5.8939                 6.2891                 7.5128
 IR Inten    --     61.9085                38.4966               259.5855

                     79                     80                     81
                      A                      A                      A
 Frequencies --   3545.3551              3591.2039              3734.0999
 Red. masses --      1.0599                 1.0652                 1.0661
 Frc consts  --      7.8494                 8.0937                 8.7585
 IR Inten    --    807.6742               159.2419                29.0936

                     82                     83                     84
                      A                      A                      A
 Frequencies --   3736.8362              3770.2265              3796.5280
 Red. masses --      1.0660                 1.0652                 1.0700
 Frc consts  --      8.7703                 8.9213                 9.0865
 IR Inten    --     12.3736                34.5394                64.3682

 - Thermochemistry -
 -------------------
 Temperature   298.150 Kelvin.  Pressure   1.00000 Atm.
 Atom     1 has atomic number  8 and mass  15.99491

 Molecular mass:   216.08452 amu.
 Principal axes and moments of inertia in atomic units:
                           1         2         3
     Eigenvalues --  2761.057463263.874604494.04073
           X            0.99975  -0.02210   0.00449
           Y            0.02215   0.99971  -0.00916
           Z           -0.00429   0.00926   0.99995
 This molecule is an asymmetric top.
 Rotational symmetry number  1.
 Warning -- assumption of classical behavior for rotation
           may cause significant error
 Rotational temperatures (Kelvin)      0.03137     0.02654     0.01927
 Rotational constants (GHZ):           0.65364     0.55294     0.40159
    1 imaginary frequencies ignored.
 Zero-point vibrational energy     634652.9 (Joules/Mol)
                                  151.68568 (Kcal/Mol)
 Warning -- explicit consideration of  28 degrees of freedom as
           vibrations may cause significant error
 Vibrational temperatures:     48.64    77.61   120.24   139.82   155.28
          (Kelvin)            223.18   231.51   253.84   288.21   325.46
                              373.99   377.74   431.92   442.87   461.76
                              498.69   534.10   546.05   587.43   610.50
                              640.17   712.55   732.22   741.97   781.73
                              788.19   834.06   881.34   932.25   968.82
                             1030.21  1081.15  1138.44  1229.83  1290.36
                             1347.83  1449.70  1494.20  1508.76  1518.60
                             1560.88  1587.93  1603.13  1610.21  1634.64
                             1720.60  1737.02  1797.31  1811.92  1833.43
                             1848.13  1883.19  1936.10  1943.66  1956.92
                             1988.43  2000.76  2027.98  2034.02  2049.34
                             2071.64  2121.58  2179.86  2204.58  2224.82
                             2296.97  2464.31  2484.24  2791.68  4270.31
                             4314.66  4357.65  4359.48  4386.05  4388.48
                             4470.01  4975.30  5100.97  5166.93  5372.53
                             5376.47  5424.51  5462.35

 Zero-point correction=                           0.241727 (Hartree/Particle)
 Thermal correction to Energy=                    0.257988
 Thermal correction to Enthalpy=                  0.258933
 Thermal correction to Gibbs Free Energy=         0.198700
 Sum of electronic and zero-point Energies=           -839.709313
 Sum of electronic and thermal Energies=              -839.693051
 Sum of electronic and thermal Enthalpies=            -839.692107
 Sum of electronic and thermal Free Energies=         -839.752340

                     E (Thermal)             CV                S
                      KCal/Mol        Cal/Mol-Kelvin    Cal/Mol-Kelvin
 Total                  161.890             61.341            126.770
 Electronic               0.000              0.000              0.000
 Translational            0.889              2.981             42.015
 Rotational               0.889              2.981             32.071
 Vibrational            160.113             55.379             52.684
 Vibration     1          0.594              1.983              5.593
 Vibration     2          0.596              1.976              4.667
 Vibration     3          0.600              1.960              3.805
 Vibration     4          0.603              1.951              3.510
 Vibration     5          0.606              1.943              3.306
 Vibration     6          0.620              1.897              2.608
 Vibration     7          0.622              1.890              2.539
 Vibration     8          0.628              1.871              2.366
 Vibration     9          0.638              1.839              2.130
 Vibration    10          0.650              1.801              1.909
 Vibration    11          0.668              1.746              1.662
 Vibration    12          0.670              1.741              1.645
 Vibration    13          0.693              1.673              1.416
 Vibration    14          0.698              1.659              1.374
 Vibration    15          0.706              1.633              1.305
 Vibration    16          0.725              1.582              1.182
 Vibration    17          0.743              1.531              1.075
 Vibration    18          0.750              1.514              1.041
 Vibration    19          0.773              1.452              0.933
 Vibration    20          0.786              1.417              0.877
 Vibration    21          0.804              1.372              0.811
 Vibration    22          0.851              1.261              0.670
 Vibration    23          0.864              1.230              0.636
 Vibration    24          0.871              1.215              0.620
 Vibration    25          0.898              1.154              0.558
 Vibration    26          0.903              1.144              0.549
 Vibration    27          0.936              1.075              0.486
 Vibration    28          0.972              1.005              0.429

 Optimization completed.
    -- Stationary point found.
 Normal termination of Gaussian 09 at Thu Jan 12 00:40:24 2017.
