 Gaussian 09, Revision E.01,
 Gaussian 09:  ES64L-G09RevE.01 30-Nov-2015

 ----------------------------------------------------------------------
 # opt=(calcfc,ts,noeigentest,maxcycle=1000,cartesian) b3lyp 6-31g(d) f
 req
 ----------------------------------------------------------------------

 ------------------------
 boat4_Beta_B3LYP_6-31G_d
 ------------------------
 Symbolic Z-matrix:
 Charge =  0 Multiplicity = 1

 SCF Done:  E(RB3LYP) =  -839.954477362     A.U. after   14 cycles
 SCF Done:  E(RB3LYP) =  -839.954485260     A.U. after   10 cycles
 SCF Done:  E(RB3LYP) =  -839.954485455     A.U. after    7 cycles
 Optimization completed.
    -- Stationary point found.
 Normal termination of Gaussian 09 at Wed Jan 11 23:07:58 2017.

 --------------------------------------------------------------------
 #N Geom=AllCheck Guess=TCheck SCRF=Check GenChk RB3LYP/6-31G(d) Freq
 --------------------------------------------------------------------

 Structure from the checkpoint file:  "/scratch/10452745.yak.local/Gau-16217.chk"
 ------------------------
 boat4_Beta_B3LYP_6-31G_d
 ------------------------
 Charge =  0 Multiplicity = 1

                         Standard orientation:
 ---------------------------------------------------------------------
 Center     Atomic      Atomic             Coordinates (Angstroms)
 Number     Number       Type             X           Y           Z
 ---------------------------------------------------------------------
      1          8           0        0.612378   -0.210934   -0.990135
      2          6           0       -1.234521    0.825689    0.235694
      3          6           0       -1.133372   -1.699761    0.118722
      4          6           0       -1.974549   -0.449051   -0.165955
      5          6           0        0.384127   -1.426143    0.182315
      6          6           0       -0.008527    1.044664   -0.668871
      7          1           0       -2.159568   -0.421297   -1.251773
      8          1           0       -0.385503    1.460582   -1.615033
      9          1           0       -0.919903    0.735269    1.282604
     10          1           0        0.951197   -2.180376   -0.389020
     11          6           0        0.984270    2.031233   -0.037409
     12          1           0        1.343198    1.625945    0.911924
     13          1           0        1.852895    2.188240   -0.694931
     14          1           0       -1.413073   -2.058189    1.117994
     15          8           0        0.854284   -1.042084    1.326525
     16          8           0        0.354658    3.278694    0.269062
     17          1           0        0.164981    3.726228   -0.571536
     18          8           0       -1.446355   -2.658383   -0.884937
     19          1           0       -1.211181   -3.535221   -0.545642
     20          8           0       -3.194241   -0.549966    0.548925
     21          1           0       -3.581619    0.342347    0.519936
     22          8           0       -2.154622    1.907726    0.088842
     23          1           0       -1.712876    2.679646    0.483162
     24          8           0        3.280361   -1.010017    1.123919
     25          1           0        3.279206   -0.596934   -0.088222
     26          1           0        2.155055   -1.067164    1.315093
     27          1           0        3.635166   -0.344762    1.733531
     28          8           0        3.020103   -0.318282   -1.180183
     29          1           0        1.810000   -0.182163   -1.162950
     30          1           0        3.474919    0.494018   -1.448252
 ---------------------------------------------------------------------

 SCF Done:  E(RB3LYP) =  -839.954485455     A.U. after    1 cycles

 The electronic state is 1-A.
 Alpha  occ. eigenvalues --  -19.18187 -19.17386 -19.17047 -19.15239 -19.14882
 Alpha  occ. eigenvalues --  -19.14283 -19.12926 -19.11261 -10.28207 -10.25555
 Alpha  occ. eigenvalues --  -10.25160 -10.23579 -10.23256 -10.22863  -1.05946
 Alpha  occ. eigenvalues --   -1.04872  -1.03270  -1.02190  -1.01509  -1.00642
 Alpha  occ. eigenvalues --   -0.99719  -0.97488  -0.78001  -0.75527  -0.69138
 Alpha  occ. eigenvalues --   -0.63363  -0.62824  -0.56743  -0.56104  -0.55122
 Alpha  occ. eigenvalues --   -0.53818  -0.53443  -0.52464  -0.51375  -0.48842
 Alpha  occ. eigenvalues --   -0.46781  -0.45901  -0.44884  -0.43482  -0.42736
 Alpha  occ. eigenvalues --   -0.42132  -0.41362  -0.39511  -0.38542  -0.38127
 Alpha  occ. eigenvalues --   -0.36318  -0.36028  -0.34676  -0.34090  -0.32566
 Alpha  occ. eigenvalues --   -0.31346  -0.30975  -0.29714  -0.28374  -0.27059
 Alpha  occ. eigenvalues --   -0.25967  -0.25661  -0.24071
 Alpha virt. eigenvalues --    0.03293   0.03721   0.05577   0.07724   0.08387
 Alpha virt. eigenvalues --    0.09111   0.11227   0.12890   0.13315   0.14121
 Alpha virt. eigenvalues --    0.15266   0.16616   0.17597   0.17976   0.19796

 Mulliken charges:
               1
     1  O   -0.644358
     2  C    0.065019
     3  C    0.118913
     4  C    0.145701
     5  C    0.282934
     6  C    0.149360
     7  H    0.141301
     8  H    0.136114
     9  H    0.158097
    10  H    0.127116
    11  C   -0.084925
    12  H    0.173961
    13  H    0.110695
    14  H    0.160271
    15  O   -0.625289
    16  O   -0.615821
    17  H    0.401072
    18  O   -0.627504
    19  H    0.394850
    20  O   -0.650510
    21  H    0.408163
    22  O   -0.668295
    23  H    0.408398
    24  O   -0.842915
    25  H    0.463630
    26  H    0.465239
    27  H    0.395175
    28  O   -0.839064
    29  H    0.488917
    30  H    0.403754
 Sum of Mulliken charges =  -0.00000

 Dipole moment (field-independent basis, Debye):
    X=              3.5749    Y=              3.9008    Z=             -0.9371  Tot=              5.3735
 Quadrupole moment (field-independent basis, Debye-Ang):
   XX=            -85.2188   YY=            -74.3285   ZZ=            -86.1765
   XY=              5.3542   XZ=             -1.2962   YZ=             -5.8196

  Exact polarizability: 107.399   0.360 103.127   0.093  -2.992  82.401
 Approx polarizability: 135.776  -2.648 135.662   0.980  -4.116 133.473

 ******    1 imaginary frequencies (negative Signs) ******

                      1                      2                      3
                      A                      A                      A
 Frequencies --  -1315.0956                41.1156                48.5304
 Red. masses --      1.1080                 5.3880                 4.9069
 Frc consts  --      1.1290                 0.0054                 0.0068
 IR Inten    --    225.4479                 1.3297                 3.6266

                      4                      5                      6
                      A                      A                      A
 Frequencies --     84.6329               102.8680               128.7473
 Red. masses --      5.8615                 5.9659                 4.9057
 Frc consts  --      0.0247                 0.0372                 0.0479
 IR Inten    --      3.5389                 4.5615                 0.8641

                      7                      8                      9
                      A                      A                      A
 Frequencies --    132.5336               157.7213               202.1961
 Red. masses --      5.4397                 4.1153                 4.8220
 Frc consts  --      0.0563                 0.0603                 0.1162
 IR Inten    --      4.1538                 1.2421                32.6020

                     10                     11                     12
                      A                      A                      A
 Frequencies --    202.8933               248.3570               256.8223
 Red. masses --      4.5977                 1.2622                 4.3568
 Frc consts  --      0.1115                 0.0459                 0.1693
 IR Inten    --      4.6545               121.4923                15.4171

                     13                     14                     15
                      A                      A                      A
 Frequencies --    278.3210               298.4136               313.4735
 Red. masses --      4.4220                 3.0930                 1.3720
 Frc consts  --      0.2018                 0.1623                 0.0794
 IR Inten    --      1.7305                14.5246               108.8866

                     16                     17                     18
                      A                      A                      A
 Frequencies --    335.4541               375.3657               383.8808
 Red. masses --      4.3380                 4.7772                 5.8164
 Frc consts  --      0.2876                 0.3966                 0.5050
 IR Inten    --     23.1409                71.9849               146.4814

                     19                     20                     21
                      A                      A                      A
 Frequencies --    411.2066               438.8053               455.3994
 Red. masses --      1.1883                 2.4682                 1.3842
 Frc consts  --      0.1184                 0.2800                 0.1691
 IR Inten    --     99.9264                 2.7917               132.1438

                     22                     23                     24
                      A                      A                      A
 Frequencies --    470.7956               482.3997               503.5357
 Red. masses --      3.5927                 2.0616                 1.9906
 Frc consts  --      0.4692                 0.2827                 0.2974
 IR Inten    --    103.8998                22.3423               108.0187

                     25                     26                     27
                      A                      A                      A
 Frequencies --    525.7822               553.0545               572.2456
 Red. masses --      3.8211                 3.5220                 4.1604
 Frc consts  --      0.6224                 0.6347                 0.8027
 IR Inten    --      4.6812                46.8071               153.8327

                     28                     29                     30
                      A                      A                      A
 Frequencies --    585.1984               600.0511               622.8405
 Red. masses --      1.5508                 2.0367                 4.2129
 Frc consts  --      0.3129                 0.4321                 0.9629
 IR Inten    --     79.9236                27.4250                88.9546

                     31                     32                     33
                      A                      A                      A
 Frequencies --    656.2911               668.7191               788.4194
 Red. masses --      4.1914                 1.3950                 3.6474
 Frc consts  --      1.0637                 0.3675                 1.3358
 IR Inten    --    154.1576                23.1626                16.3309

                     34                     35                     36
                      A                      A                      A
 Frequencies --    854.9934               904.4118               970.4854
 Red. masses --      1.3133                 1.8033                 3.2041
 Frc consts  --      0.5656                 0.8691                 1.7780
 IR Inten    --    149.5507                48.6199               152.1970

                     37                     38                     39
                      A                      A                      A
 Frequencies --   1020.3971              1025.0743              1047.8463
 Red. masses --      3.1359                 3.8520                 3.3900
 Frc consts  --      1.9238                 2.3848                 2.1930
 IR Inten    --   1020.7070                28.5096               216.2438

                     40                     41                     42
                      A                      A                      A
 Frequencies --   1065.9419              1087.8590              1092.7057
 Red. masses --      3.8207                 1.5047                 2.2431
 Frc consts  --      2.5578                 1.0492                 1.5780
 IR Inten    --     38.1395               714.1128                81.1816

                     43                     44                     45
                      A                      A                      A
 Frequencies --   1110.8445              1119.0264              1131.2402
 Red. masses --      1.9216                 3.3361                 3.2155
 Frc consts  --      1.3971                 2.4613                 2.4244
 IR Inten    --     15.4806               141.5459                26.2454

                     46                     47                     48
                      A                      A                      A
 Frequencies --   1140.4805              1189.5097              1210.0735
 Red. masses --      2.7318                 1.2297                 1.1779
 Frc consts  --      2.0935                 1.0252                 1.0162
 IR Inten    --     88.9988                10.5791              3055.7278

                     49                     50                     51
                      A                      A                      A
 Frequencies --   1227.7693              1258.5175              1290.8586
 Red. masses --      1.1959                 1.3949                 1.1311
 Frc consts  --      1.0622                 1.3017                 1.1105
 IR Inten    --     93.0738                57.8585               162.7989

                     52                     53                     54
                      A                      A                      A
 Frequencies --   1303.1308              1309.1899              1322.4692
 Red. masses --      1.1591                 1.1846                 1.2965
 Frc consts  --      1.1597                 1.1963                 1.3359
 IR Inten    --    217.0791                44.7121                 1.0817

                     55                     56                     57
                      A                      A                      A
 Frequencies --   1339.2358              1344.4085              1362.6272
 Red. masses --      1.4065                 1.2731                 1.1740
 Frc consts  --      1.4863                 1.3557                 1.2844
 IR Inten    --    138.8649                30.1892               294.6602

                     58                     59                     60
                      A                      A                      A
 Frequencies --   1386.0479              1404.8051              1406.9552
 Red. masses --      1.2281                 1.3714                 1.2715
 Frc consts  --      1.3901                 1.5946                 1.4829
 IR Inten    --     97.3823                41.6777                32.6635

                     61                     62                     63
                      A                      A                      A
 Frequencies --   1413.1978              1424.2463              1450.7530
 Red. masses --      1.2266                 1.3234                 1.1735
 Frc consts  --      1.4433                 1.5816                 1.4552
 IR Inten    --     16.6160                35.7937               340.4191

                     64                     65                     66
                      A                      A                      A
 Frequencies --   1458.2471              1473.6953              1515.0831
 Red. masses --      1.6963                 1.5271                 2.0020
 Frc consts  --      2.1253                 1.9540                 2.7076
 IR Inten    --    207.3557               142.5127               504.3390

                     67                     68                     69
                      A                      A                      A
 Frequencies --   1536.6016              1677.1547              1762.1114
 Red. masses --      1.0871                 1.1362                 1.0579
 Frc consts  --      1.5123                 1.8829                 1.9354
 IR Inten    --     27.8468              1037.9242               269.9374

                     70                     71                     72
                      A                      A                      A
 Frequencies --   1778.4072              1880.0445              2994.4367
 Red. masses --      1.0783                 1.0453                 1.0877
 Frc consts  --      2.0093                 2.1769                 5.7464
 IR Inten    --    515.2867               170.0161                69.5086

                     73                     74                     75
                      A                      A                      A
 Frequencies --   3004.9092              3012.1346              3023.1303
 Red. masses --      1.0830                 1.0735                 1.0811
 Frc consts  --      5.7615                 5.7387                 5.8214
 IR Inten    --     25.5875                86.1585                48.4260

                     76                     77                     78
                      A                      A                      A
 Frequencies --   3054.9210              3066.8617              3133.8146
 Red. masses --      1.0849                 1.0855                 1.0953
 Frc consts  --      5.9652                 6.0156                 6.3377
 IR Inten    --     13.4702                31.7272                17.2042

                     79                     80                     81
                      A                      A                      A
 Frequencies --   3703.9863              3708.1287              3731.5393
 Red. masses --      1.0651                 1.0655                 1.0662
 Frc consts  --      8.6097                 8.6320                 8.7468
 IR Inten    --     70.5839                52.7740                21.4275

                     82                     83                     84
                      A                      A                      A
 Frequencies --   3754.0959              3784.0899              3798.4292
 Red. masses --      1.0665                 1.0652                 1.0655
 Frc consts  --      8.8559                 8.9869                 9.0578
 IR Inten    --     19.8498                27.3476                34.0571

 - Thermochemistry -
 -------------------
 Temperature   298.150 Kelvin.  Pressure   1.00000 Atm.
 Atom     1 has atomic number  8 and mass  15.99491

 Molecular mass:   216.08452 amu.
 Principal axes and moments of inertia in atomic units:
                           1         2         3
     Eigenvalues --  2504.883543241.544284818.97067
           X            0.99996   0.00856  -0.00049
           Y           -0.00857   0.99993  -0.00795
           Z            0.00042   0.00795   0.99997
 This molecule is an asymmetric top.
 Rotational symmetry number  1.
 Warning -- assumption of classical behavior for rotation
           may cause significant error
 Rotational temperatures (Kelvin)      0.03458     0.02672     0.01797
 Rotational constants (GHZ):           0.72049     0.55675     0.37451
    1 imaginary frequencies ignored.
 Zero-point vibrational energy     627997.6 (Joules/Mol)
                                  150.09502 (Kcal/Mol)
 Warning -- explicit consideration of  28 degrees of freedom as
           vibrations may cause significant error
 Vibrational temperatures:     59.16    69.82   121.77   148.00   185.24
          (Kelvin)            190.69   226.93   290.91   291.92   357.33
                              369.51   400.44   429.35   451.02   482.64
                              540.07   552.32   591.63   631.34   655.22
                              677.37   694.06   724.47   756.48   795.72
                              823.33   841.97   863.34   896.13   944.26
                              962.14  1134.36  1230.14  1301.25  1396.31
                             1468.12  1474.85  1507.62  1533.65  1565.18
                             1572.16  1598.26  1610.03  1627.60  1640.90
                             1711.44  1741.02  1766.48  1810.72  1857.26
                             1874.91  1883.63  1902.74  1926.86  1934.30
                             1960.51  1994.21  2021.20  2024.29  2033.27
                             2049.17  2087.31  2098.09  2120.32  2179.86
                             2210.82  2413.05  2535.28  2558.73  2704.96
                             4308.32  4323.39  4333.78  4349.60  4395.34
                             4412.52  4508.85  5329.20  5335.16  5368.85
                             5401.30  5444.45  5465.09

 Zero-point correction=                           0.239192 (Hartree/Particle)
 Thermal correction to Energy=                    0.255135
 Thermal correction to Enthalpy=                  0.256079
 Thermal correction to Gibbs Free Energy=         0.196626
 Sum of electronic and zero-point Energies=           -839.715294
 Sum of electronic and thermal Energies=              -839.699350
 Sum of electronic and thermal Enthalpies=            -839.698406
 Sum of electronic and thermal Free Energies=         -839.757859

                     E (Thermal)             CV                S
                      KCal/Mol        Cal/Mol-Kelvin    Cal/Mol-Kelvin
 Total                  160.100             60.603            125.129
 Electronic               0.000              0.000              0.000
 Translational            0.889              2.981             42.015
 Rotational               0.889              2.981             32.037
 Vibrational            158.322             54.642             51.077
 Vibration     1          0.594              1.981              5.205
 Vibration     2          0.595              1.978              4.876
 Vibration     3          0.601              1.960              3.780
 Vibration     4          0.605              1.947              3.399
 Vibration     5          0.611              1.924              2.965
 Vibration     6          0.613              1.921              2.909
 Vibration     7          0.621              1.894              2.577
 Vibration     8          0.639              1.837              2.113
 Vibration     9          0.639              1.836              2.107
 Vibration    10          0.662              1.765              1.742
 Vibration    11          0.666              1.751              1.683
 Vibration    12          0.679              1.714              1.544
 Vibration    13          0.692              1.677              1.426
 Vibration    14          0.701              1.648              1.344
 Vibration    15          0.717              1.605              1.234
 Vibration    16          0.746              1.523              1.058
 Vibration    17          0.753              1.505              1.024
 Vibration    18          0.775              1.446              0.922
 Vibration    19          0.799              1.386              0.830
 Vibration    20          0.814              1.349              0.780
 Vibration    21          0.828              1.315              0.735
 Vibration    22          0.839              1.289              0.704
 Vibration    23          0.859              1.242              0.649
 Vibration    24          0.881              1.193              0.597
 Vibration    25          0.908              1.133              0.538
 Vibration    26          0.928              1.091              0.500
 Vibration    27          0.942              1.063              0.476
 Vibration    28          0.958              1.032              0.450

 Optimization completed.
    -- Stationary point found.
 Normal termination of Gaussian 09 at Wed Jan 11 23:25:34 2017.
