 Gaussian 09, Revision D.01,
 Gaussian 09:  AM64L-G09RevD.01 24-Apr-2013

 -----------------------------------------
 # opt=(MaxCycle=1000) freq B3LYP/6-31G(d)
 -----------------------------------------

 ------------------------
 boat3_Beta_B3LYP_6-31G_d
 ------------------------
 Symbolic Z-matrix:
 Charge =  0 Multiplicity = 1

 SCF Done:  E(RB3LYP) =  -687.097642920     A.U. after   14 cycles
 SCF Done:  E(RB3LYP) =  -687.117849114     A.U. after   12 cycles
 SCF Done:  E(RB3LYP) =  -687.121807756     A.U. after   11 cycles
 SCF Done:  E(RB3LYP) =  -687.122344628     A.U. after   11 cycles
 SCF Done:  E(RB3LYP) =  -687.123001101     A.U. after   11 cycles
 SCF Done:  E(RB3LYP) =  -687.124952891     A.U. after   12 cycles
 SCF Done:  E(RB3LYP) =  -687.126459603     A.U. after   12 cycles
 SCF Done:  E(RB3LYP) =  -687.129316570     A.U. after   12 cycles
 SCF Done:  E(RB3LYP) =  -687.130598751     A.U. after   11 cycles
 SCF Done:  E(RB3LYP) =  -687.131456380     A.U. after   12 cycles
 SCF Done:  E(RB3LYP) =  -687.136831206     A.U. after   11 cycles
 SCF Done:  E(RB3LYP) =  -687.136981981     A.U. after   10 cycles
 SCF Done:  E(RB3LYP) =  -687.136994639     A.U. after   10 cycles
 SCF Done:  E(RB3LYP) =  -687.137008878     A.U. after   11 cycles
 SCF Done:  E(RB3LYP) =  -687.137012848     A.U. after    8 cycles
 SCF Done:  E(RB3LYP) =  -687.137014123     A.U. after    8 cycles
 SCF Done:  E(RB3LYP) =  -687.137014464     A.U. after    7 cycles
 SCF Done:  E(RB3LYP) =  -687.137014768     A.U. after    7 cycles
 SCF Done:  E(RB3LYP) =  -687.137014859     A.U. after    7 cycles
 Optimization completed.
    -- Stationary point found.
 Normal termination of Gaussian 09 at Tue Jun 14 02:42:19 2016.

 --------------------------------------------------------------------
 #N Geom=AllCheck Guess=TCheck SCRF=Check GenChk RB3LYP/6-31G(d) Freq
 --------------------------------------------------------------------

 Structure from the checkpoint file:  "/home/iawad/scratch/MAIN/PRO_Halides/direct/optfreq/boat3_Beta/boat3_Beta_optfreq_B3LYP_6-31G_d.chk"
 ------------------------
 boat3_Beta_B3LYP_6-31G_d
 ------------------------
 Charge =  0 Multiplicity = 1

                         Standard orientation:
 ---------------------------------------------------------------------
 Center     Atomic      Atomic             Coordinates (Angstroms)
 Number     Number       Type             X           Y           Z
 ---------------------------------------------------------------------
      1          6           0       -0.469842    0.834336   -0.220880
      2          6           0        1.789115   -0.201569   -0.180083
      3          8           0       -0.101760   -1.323226    0.949648
      4          6           0        0.958770   -1.493308    0.053392
      5          6           0       -1.058495   -0.294588    0.643564
      6          6           0        0.980628    1.041909    0.187377
      7          1           0        1.608260   -2.243141    0.521184
      8          1           0        1.020527    1.162596    1.282252
      9          1           0        2.025687   -0.127197   -1.254130
     10          1           0       -1.314000    0.154031    1.613505
     11          1           0       -0.507653    0.555494   -1.284413
     12          6           0       -2.325088   -0.890551    0.021121
     13          1           0       -2.715206   -1.701701    0.649104
     14          1           0       -2.099387   -1.301064   -0.965183
     15          8           0        0.407481   -1.978416   -1.167712
     16          1           0        1.133681   -2.111590   -1.797716
     17          8           0       -3.310061    0.138623   -0.180036
     18          1           0       -3.719227    0.324956    0.679832
     19          8           0        2.982277   -0.308643    0.582657
     20          1           0        3.443015    0.542077    0.497337
     21          8           0        1.566832    2.162935   -0.457277
     22          1           0        0.912088    2.879068   -0.387382
     23          8           0       -1.164280    2.059635   -0.013750
     24          1           0       -2.082235    1.881838   -0.289575
 ---------------------------------------------------------------------

 SCF Done:  E(RB3LYP) =  -687.137014859     A.U. after    1 cycles

 The electronic state is 1-A.
 Alpha  occ. eigenvalues --  -19.17045 -19.16205 -19.15826 -19.15087 -19.14927
 Alpha  occ. eigenvalues --  -19.14625 -10.28989 -10.24248 -10.23982 -10.23815
 Alpha  occ. eigenvalues --  -10.23715 -10.23520  -1.07494  -1.04086  -1.03423
 Alpha  occ. eigenvalues --   -1.02266  -1.00749  -1.00576  -0.78488  -0.76777
 Alpha  occ. eigenvalues --   -0.69069  -0.64619  -0.62694  -0.56895  -0.56069
 Alpha  occ. eigenvalues --   -0.53577  -0.52232  -0.50638  -0.50002  -0.48257
 Alpha  occ. eigenvalues --   -0.45137  -0.44725  -0.43548  -0.43003  -0.41655
 Alpha  occ. eigenvalues --   -0.40050  -0.37524  -0.36766  -0.35645  -0.35496
 Alpha  occ. eigenvalues --   -0.33557  -0.33079  -0.30650  -0.28482  -0.28316
 Alpha  occ. eigenvalues --   -0.27108  -0.26908  -0.25370
 Alpha virt. eigenvalues --    0.04466   0.06530   0.07847   0.09344   0.10765
 Alpha virt. eigenvalues --    0.11732   0.13894   0.14014   0.14981   0.15234
 Alpha virt. eigenvalues --    0.16215   0.17431   0.17823   0.20025   0.20599

 Mulliken charges:
               1
     1  C    0.076542
     2  C    0.111052
     3  O   -0.496088
     4  C    0.333805
     5  C    0.121370
     6  C    0.113248
     7  H    0.155026
     8  H    0.135124
     9  H    0.124163
    10  H    0.133341
    11  H    0.137555
    12  C   -0.076682
    13  H    0.146281
    14  H    0.184378
    15  O   -0.631289
    16  H    0.396039
    17  O   -0.623651
    18  H    0.400391
    19  O   -0.641713
    20  H    0.406749
    21  O   -0.661320
    22  H    0.414316
    23  O   -0.669817
    24  H    0.411182
 Sum of Mulliken charges =   0.00000

 Dipole moment (field-independent basis, Debye):
    X=             -1.0598    Y=              0.2665    Z=             -0.1861  Tot=              1.1085
 Quadrupole moment (field-independent basis, Debye-Ang):
   XX=            -65.1080   YY=            -71.9458   ZZ=            -68.9535
   XY=             -1.7203   XZ=             -8.1083   YZ=              4.0451

  Exact polarizability:  91.170  -2.270  81.031  -2.711   1.272  68.627
 Approx polarizability: 115.777  -4.960 111.505  -2.602   0.592 107.508

                      1                      2                      3
                      A                      A                      A
 Frequencies --     51.5390               101.2218               127.9414
 Red. masses --      5.9363                 6.6665                 5.4948
 Frc consts  --      0.0093                 0.0402                 0.0530
 IR Inten    --      1.5262                 1.1491                 0.7430

                      4                      5                      6
                      A                      A                      A
 Frequencies --    144.5137               206.8504               233.4808
 Red. masses --      3.5215                 3.3126                 2.1581
 Frc consts  --      0.0433                 0.0835                 0.0693
 IR Inten    --      4.9061                 6.2592                47.4159

                      7                      8                      9
                      A                      A                      A
 Frequencies --    240.4703               255.7203               266.4496
 Red. masses --      3.0805                 2.4323                 2.7326
 Frc consts  --      0.1050                 0.0937                 0.1143
 IR Inten    --     15.4715                48.1129                29.6602

                     10                     11                     12
                      A                      A                      A
 Frequencies --    319.6884               326.4014               372.7092
 Red. masses --      1.1386                 4.0288                 4.5982
 Frc consts  --      0.0686                 0.2529                 0.3763
 IR Inten    --    187.6067                13.8097                 7.5773

                     13                     14                     15
                      A                      A                      A
 Frequencies --    391.8608               415.9650               433.6902
 Red. masses --      1.5021                 3.2537                 1.2605
 Frc consts  --      0.1359                 0.3317                 0.1397
 IR Inten    --     74.5357                42.6549               113.2474

                     16                     17                     18
                      A                      A                      A
 Frequencies --    450.5976               469.8512               503.9934
 Red. masses --      3.0760                 5.4023                 4.5890
 Frc consts  --      0.3680                 0.7027                 0.6868
 IR Inten    --     27.4897                 9.6942                 8.2105

                     19                     20                     21
                      A                      A                      A
 Frequencies --    544.4962               579.5971               591.7480
 Red. masses --      5.1236                 3.7564                 1.1894
 Frc consts  --      0.8950                 0.7435                 0.2454
 IR Inten    --      7.1061                16.8013                80.6393

                     22                     23                     24
                      A                      A                      A
 Frequencies --    613.5080               771.4597               910.4861
 Red. masses --      3.7578                 5.3472                 1.7490
 Frc consts  --      0.8333                 1.8750                 0.8542
 IR Inten    --     25.3017                28.4735                 2.8328

                     25                     26                     27
                      A                      A                      A
 Frequencies --    935.8045               994.9041              1018.5676
 Red. masses --      3.9866                 2.8588                 4.2043
 Frc consts  --      2.0569                 1.6673                 2.5700
 IR Inten    --     15.7804                17.9960                36.6088

                     28                     29                     30
                      A                      A                      A
 Frequencies --   1038.5457              1041.4851              1058.8814
 Red. masses --      4.8594                 5.2036                 2.8793
 Frc consts  --      3.0881                 3.3255                 1.9021
 IR Inten    --    170.6401                68.3735                70.5502

                     31                     32                     33
                      A                      A                      A
 Frequencies --   1085.3126              1100.3893              1125.4538
 Red. masses --      2.0825                 2.9112                 3.1226
 Frc consts  --      1.4453                 2.0769                 2.3303
 IR Inten    --     67.1843               135.4227                84.0677

                     34                     35                     36
                      A                      A                      A
 Frequencies --   1132.3613              1145.0094              1151.5501
 Red. masses --      2.6176                 3.2904                 4.2097
 Frc consts  --      1.9775                 2.5417                 3.2890
 IR Inten    --     34.1004                39.1850                17.3574

                     37                     38                     39
                      A                      A                      A
 Frequencies --   1189.4232              1236.2538              1268.5045
 Red. masses --      1.4797                 1.2361                 1.1967
 Frc consts  --      1.2334                 1.1131                 1.1346
 IR Inten    --     20.4287                11.2778                29.7849

                     40                     41                     42
                      A                      A                      A
 Frequencies --   1289.9028              1293.8309              1329.3313
 Red. masses --      1.1646                 1.3191                 1.2496
 Frc consts  --      1.1417                 1.3010                 1.3011
 IR Inten    --     28.1044               125.0735                 1.0845

                     43                     44                     45
                      A                      A                      A
 Frequencies --   1344.8709              1360.0854              1367.8134
 Red. masses --      1.2575                 1.1820                 1.2593
 Frc consts  --      1.3401                 1.2882                 1.3882
 IR Inten    --     42.9160                 8.1491                61.4523

                     46                     47                     48
                      A                      A                      A
 Frequencies --   1390.8344              1394.9579              1411.5329
 Red. masses --      1.2597                 1.2328                 1.2743
 Frc consts  --      1.4357                 1.4134                 1.4959
 IR Inten    --     10.4095                59.5164                13.0626

                     49                     50                     51
                      A                      A                      A
 Frequencies --   1425.9553              1434.3069              1442.5325
 Red. masses --      1.5320                 1.3671                 1.3872
 Frc consts  --      1.8354                 1.6570                 1.7008
 IR Inten    --     24.1754                 4.3723                 6.5164

                     52                     53                     54
                      A                      A                      A
 Frequencies --   1466.4312              1479.8668              1538.3557
 Red. masses --      1.6543                 1.5271                 1.0854
 Frc consts  --      2.0960                 1.9704                 1.5134
 IR Inten    --     33.3094                 6.5675                 2.2041

                     55                     56                     57
                      A                      A                      A
 Frequencies --   2989.0659              3000.8103              3024.0259
 Red. masses --      1.0822                 1.0838                 1.0835
 Frc consts  --      5.6966                 5.7500                 5.8378
 IR Inten    --     12.8406                38.9037                25.5186

                     58                     59                     60
                      A                      A                      A
 Frequencies --   3040.4449              3057.2885              3069.9288
 Red. masses --      1.0860                 1.0684                 1.0875
 Frc consts  --      5.9151                 5.8836                 6.0387
 IR Inten    --     68.8411                41.8368                43.4885

                     61                     62                     63
                      A                      A                      A
 Frequencies --   3151.2018              3673.4816              3713.0485
 Red. masses --      1.0997                 1.0657                 1.0654
 Frc consts  --      6.4342                 8.4727                 8.6544
 IR Inten    --     15.8564               108.8905                40.8144

                     64                     65                     66
                      A                      A                      A
 Frequencies --   3734.7238              3740.4394              3742.8066
 Red. masses --      1.0660                 1.0664                 1.0657
 Frc consts  --      8.7603                 8.7902                 8.7962
 IR Inten    --     28.4113                22.7226                17.3636

 - Thermochemistry -
 -------------------
 Temperature   298.150 Kelvin.  Pressure   1.00000 Atm.
 Atom     1 has atomic number  6 and mass  12.00000

 Molecular mass:   180.06339 amu.
 Principal axes and moments of inertia in atomic units:
                           1         2         3
     Eigenvalues --  1384.880102294.530603213.43157
           X            0.99996   0.00467  -0.00809
           Y           -0.00458   0.99993   0.01073
           Z            0.00814  -0.01069   0.99991
 This molecule is an asymmetric top.
 Rotational symmetry number  1.
 Warning -- assumption of classical behavior for rotation
           may cause significant error
 Rotational temperatures (Kelvin)      0.06254     0.03775     0.02695
 Rotational constants (GHZ):           1.30318     0.78654     0.56162
 Zero-point vibrational energy     518907.5 (Joules/Mol)
                                  124.02187 (Kcal/Mol)
 Warning -- explicit consideration of  22 degrees of freedom as
           vibrations may cause significant error
 Vibrational temperatures:     74.15   145.64   184.08   207.92   297.61
          (Kelvin)            335.93   345.98   367.92   383.36   459.96
                              469.62   536.24   563.80   598.48   623.98
                              648.31   676.01   725.13   783.41   833.91
                              851.39   882.70  1109.96  1309.98  1346.41
                             1431.44  1465.49  1494.23  1498.46  1523.49
                             1561.52  1583.21  1619.28  1629.21  1647.41
                             1656.82  1711.31  1778.69  1825.09  1855.88
                             1861.53  1912.61  1934.97  1956.86  1967.98
                             2001.10  2007.03  2030.88  2051.63  2063.65
                             2075.48  2109.86  2129.20  2213.35  4300.59
                             4317.49  4350.89  4374.52  4398.75  4416.94
                             4533.87  5285.31  5342.24  5373.43  5381.65
                             5385.06

 Zero-point correction=                           0.197641 (Hartree/Particle)
 Thermal correction to Energy=                    0.209949
 Thermal correction to Enthalpy=                  0.210893
 Thermal correction to Gibbs Free Energy=         0.159927
 Sum of electronic and zero-point Energies=           -686.939373
 Sum of electronic and thermal Energies=              -686.927066
 Sum of electronic and thermal Enthalpies=            -686.926122
 Sum of electronic and thermal Free Energies=         -686.977088

                     E (Thermal)             CV                S
                      KCal/Mol        Cal/Mol-Kelvin    Cal/Mol-Kelvin
 Total                  131.745             47.040            107.267
 Electronic               0.000              0.000              0.000
 Translational            0.889              2.981             41.471
 Rotational               0.889              2.981             30.702
 Vibrational            129.968             41.078             35.093
 Vibration     1          0.596              1.977              4.757
 Vibration     2          0.604              1.948              3.431
 Vibration     3          0.611              1.925              2.977
 Vibration     4          0.616              1.909              2.743
 Vibration     5          0.641              1.830              2.071
 Vibration     6          0.654              1.790              1.852
 Vibration     7          0.658              1.778              1.799
 Vibration     8          0.666              1.753              1.691
 Vibration     9          0.672              1.735              1.619
 Vibration    10          0.706              1.636              1.312
 Vibration    11          0.710              1.623              1.278
 Vibration    12          0.744              1.528              1.069
 Vibration    13          0.759              1.488              0.993
 Vibration    14          0.779              1.436              0.906
 Vibration    15          0.794              1.397              0.847
 Vibration    16          0.809              1.360              0.794
 Vibration    17          0.827              1.317              0.738
 Vibration    18          0.859              1.241              0.648
 Vibration    19          0.900              1.152              0.556
 Vibration    20          0.936              1.075              0.486
 Vibration    21          0.949              1.049              0.464
 Vibration    22          0.973              1.003              0.427

 Normal termination of Gaussian 09 at Tue Jun 14 02:55:40 2016.
