 Gaussian 09, Revision D.01,
 Gaussian 09:  AM64L-G09RevD.01 24-Apr-2013

 -----------------------------------------
 # opt=(MaxCycle=1000) freq B3LYP/6-31G(d)
 -----------------------------------------

 -------------------------
 boat1_Alpha_B3LYP_6-31G_d
 -------------------------
 Symbolic Z-matrix:
 Charge =  0 Multiplicity = 1

 SCF Done:  E(RB3LYP) =  -687.115428717     A.U. after   14 cycles
 SCF Done:  E(RB3LYP) =  -687.125035216     A.U. after   12 cycles
 SCF Done:  E(RB3LYP) =  -687.127863258     A.U. after   12 cycles
 SCF Done:  E(RB3LYP) =  -687.130421459     A.U. after   12 cycles
 SCF Done:  E(RB3LYP) =  -687.131982436     A.U. after   12 cycles
 SCF Done:  E(RB3LYP) =  -687.133376051     A.U. after   12 cycles
 SCF Done:  E(RB3LYP) =  -687.134716761     A.U. after   12 cycles
 SCF Done:  E(RB3LYP) =  -687.135972176     A.U. after   13 cycles
 SCF Done:  E(RB3LYP) =  -687.137430633     A.U. after   12 cycles
 SCF Done:  E(RB3LYP) =  -687.138769575     A.U. after   12 cycles
 SCF Done:  E(RB3LYP) =  -687.139080583     A.U. after   11 cycles
 SCF Done:  E(RB3LYP) =  -687.139211101     A.U. after   10 cycles
 SCF Done:  E(RB3LYP) =  -687.139284628     A.U. after   11 cycles
 SCF Done:  E(RB3LYP) =  -687.139329742     A.U. after   11 cycles
 SCF Done:  E(RB3LYP) =  -687.139356805     A.U. after   11 cycles
 SCF Done:  E(RB3LYP) =  -687.139370600     A.U. after    9 cycles
 SCF Done:  E(RB3LYP) =  -687.139378352     A.U. after    9 cycles
 SCF Done:  E(RB3LYP) =  -687.139379287     A.U. after    7 cycles
 Optimization completed.
    -- Stationary point found.
 Normal termination of Gaussian 09 at Tue Jun 14 00:38:56 2016.

 --------------------------------------------------------------------
 #N Geom=AllCheck Guess=TCheck SCRF=Check GenChk RB3LYP/6-31G(d) Freq
 --------------------------------------------------------------------

 Structure from the checkpoint file:  "/home/iawad/scratch/MAIN/PRO_Halides/direct/optfreq/boat1_Alpha/boat1_Alpha_optfreq_B3LYP_6-31G_d.chk"
 -------------------------
 boat1_Alpha_B3LYP_6-31G_d
 -------------------------
 Charge =  0 Multiplicity = 1

                         Standard orientation:
 ---------------------------------------------------------------------
 Center     Atomic      Atomic             Coordinates (Angstroms)
 Number     Number       Type             X           Y           Z
 ---------------------------------------------------------------------
      1          1           0        1.337372   -0.297222   -1.567310
      2          6           0        1.047207   -0.548081   -0.540136
      3          6           0       -0.633432    1.249094   -0.173912
      4          6           0       -1.076468   -1.181632    0.412773
      5          6           0       -1.661851    0.255000    0.371846
      6          8           0       -0.120007   -1.365636   -0.642169
      7          6           0        0.775716    0.790535    0.179586
      8          1           0       -1.923858    0.553415    1.397310
      9          1           0        0.848004    0.661657    1.273087
     10          6           0        2.185345   -1.334196    0.113309
     11          1           0        2.409409   -2.227227   -0.485057
     12          1           0        1.882183   -1.662332    1.119271
     13          1           0       -0.720855    1.250095   -1.272037
     14          8           0        3.313066   -0.451815    0.180747
     15          1           0        4.035288   -0.901060    0.643515
     16          8           0       -2.831455    0.205905   -0.442733
     17          1           0       -3.237707    1.085874   -0.429709
     18          8           0       -0.921460    2.536018    0.351592
     19          1           0       -0.147348    3.085375    0.138011
     20          8           0        1.674092    1.806741   -0.242169
     21          1           0        2.567143    1.464155   -0.056786
     22          1           0       -0.579369   -1.345233    1.379189
     23          8           0       -2.059009   -2.141519    0.293139
     24          1           0       -2.731174   -1.769370   -0.307529
 ---------------------------------------------------------------------

 SCF Done:  E(RB3LYP) =  -687.139379287     A.U. after    1 cycles

 The electronic state is 1-A.
 Alpha  occ. eigenvalues --  -19.17406 -19.16130 -19.14923 -19.14900 -19.14662
 Alpha  occ. eigenvalues --  -19.14495 -10.28573 -10.24559 -10.24181 -10.24172
 Alpha  occ. eigenvalues --  -10.24045 -10.23538  -1.06979  -1.04449  -1.03476
 Alpha  occ. eigenvalues --   -1.02774  -1.00744  -1.00098  -0.78202  -0.76612
 Alpha  occ. eigenvalues --   -0.69440  -0.64455  -0.62225  -0.57825  -0.55412
 Alpha  occ. eigenvalues --   -0.54916  -0.52417  -0.50817  -0.48285  -0.47811
 Alpha  occ. eigenvalues --   -0.47138  -0.45037  -0.43409  -0.42670  -0.41820
 Alpha  occ. eigenvalues --   -0.39785  -0.38822  -0.37026  -0.35469  -0.34847
 Alpha  occ. eigenvalues --   -0.33021  -0.32690  -0.29595  -0.29264  -0.28277
 Alpha  occ. eigenvalues --   -0.27383  -0.26827  -0.25093
 Alpha virt. eigenvalues --    0.04191   0.06391   0.07718   0.10112   0.10648
 Alpha virt. eigenvalues --    0.13335   0.13611   0.14522   0.15122   0.15695
 Alpha virt. eigenvalues --    0.16146   0.17017   0.17885   0.19095   0.20607

 Mulliken charges:
               1
     1  H    0.155337
     2  C    0.117940
     3  C    0.125958
     4  C    0.336893
     5  C    0.100888
     6  O   -0.501897
     7  C    0.081850
     8  H    0.141704
     9  H    0.117533
    10  C   -0.055144
    11  H    0.150105
    12  H    0.133435
    13  H    0.138299
    14  O   -0.640244
    15  H    0.408623
    16  O   -0.660862
    17  H    0.415520
    18  O   -0.659785
    19  H    0.413636
    20  O   -0.670089
    21  H    0.424020
    22  H    0.120282
    23  O   -0.617690
    24  H    0.423687
 Sum of Mulliken charges =   0.00000

 Dipole moment (field-independent basis, Debye):
    X=              2.6199    Y=              0.4024    Z=              1.2455  Tot=              2.9287
 Quadrupole moment (field-independent basis, Debye-Ang):
   XX=            -57.4988   YY=            -76.0378   ZZ=            -69.9821
   XY=             -9.0173   XZ=              5.3892   YZ=             -2.1946

  Exact polarizability:  94.299   0.140  82.059   0.818  -1.430  64.971
 Approx polarizability: 119.116   4.504 112.999   1.245  -1.269 101.451

                      1                      2                      3
                      A                      A                      A
 Frequencies --     49.7626                84.6027               120.8442
 Red. masses --      6.5756                 6.0583                 4.8493
 Frc consts  --      0.0096                 0.0255                 0.0417
 IR Inten    --      2.8522                 3.2723                 3.8464

                      4                      5                      6
                      A                      A                      A
 Frequencies --    147.3816               201.6805               222.1683
 Red. masses --      4.1763                 1.6461                 1.3695
 Frc consts  --      0.0534                 0.0394                 0.0398
 IR Inten    --     11.0784               103.0659                36.8765

                      7                      8                      9
                      A                      A                      A
 Frequencies --    246.6249               263.3412               284.2132
 Red. masses --      1.6543                 2.6694                 3.9113
 Frc consts  --      0.0593                 0.1091                 0.1862
 IR Inten    --     79.3296                23.2818                36.2125

                     10                     11                     12
                      A                      A                      A
 Frequencies --    303.8537               321.5811               348.6688
 Red. masses --      5.5587                 4.4311                 4.5045
 Frc consts  --      0.3024                 0.2700                 0.3226
 IR Inten    --      6.3907                11.6889                 0.9618

                     13                     14                     15
                      A                      A                      A
 Frequencies --    400.1177               416.8094               440.7433
 Red. masses --      7.1847                 4.5248                 1.5156
 Frc consts  --      0.6777                 0.4632                 0.1735
 IR Inten    --      1.9633                17.1051                98.2260

                     16                     17                     18
                      A                      A                      A
 Frequencies --    452.2548               484.6972               501.7556
 Red. masses --      2.7308                 1.6089                 2.3200
 Frc consts  --      0.3291                 0.2227                 0.3441
 IR Inten    --     46.9421                53.4271                24.2822

                     19                     20                     21
                      A                      A                      A
 Frequencies --    517.2440               539.5539               597.8539
 Red. masses --      2.8168                 1.1984                 3.2379
 Frc consts  --      0.4440                 0.2056                 0.6819
 IR Inten    --     19.1272                97.9988                18.1426

                     22                     23                     24
                      A                      A                      A
 Frequencies --    692.5539               767.8187               842.3518
 Red. masses --      6.5609                 4.4529                 3.2728
 Frc consts  --      1.8540                 1.5467                 1.3682
 IR Inten    --      6.6746                73.9797                29.9070

                     25                     26                     27
                      A                      A                      A
 Frequencies --    912.1792              1002.0522              1013.1840
 Red. masses --      1.8864                 4.3272                 2.9658
 Frc consts  --      0.9248                 2.5600                 1.7938
 IR Inten    --      0.7588                75.4196                21.4879

                     28                     29                     30
                      A                      A                      A
 Frequencies --   1048.6692              1059.9321              1086.0905
 Red. masses --      3.2573                 6.0402                 4.0730
 Frc consts  --      2.1105                 3.9981                 2.8307
 IR Inten    --     40.2042                46.8863               258.8292

                     31                     32                     33
                      A                      A                      A
 Frequencies --   1104.2858              1108.9278              1132.1670
 Red. masses --      3.3541                 2.9030                 3.6098
 Frc consts  --      2.4099                 2.1033                 2.7262
 IR Inten    --    101.7420                42.3998                92.9365

                     34                     35                     36
                      A                      A                      A
 Frequencies --   1137.0909              1154.8768              1191.0177
 Red. masses --      2.9958                 3.7078                 2.4900
 Frc consts  --      2.2822                 2.9136                 2.0811
 IR Inten    --     14.0560                21.0346               115.3705

                     37                     38                     39
                      A                      A                      A
 Frequencies --   1213.8322              1233.2278              1252.4386
 Red. masses --      1.2158                 1.1868                 1.2202
 Frc consts  --      1.0554                 1.0634                 1.1277
 IR Inten    --     62.3389                17.5262                28.5011

                     40                     41                     42
                      A                      A                      A
 Frequencies --   1256.8081              1281.5238              1326.7200
 Red. masses --      1.1857                 1.1387                 1.2641
 Frc consts  --      1.1035                 1.1018                 1.3110
 IR Inten    --     22.4661                27.7116                30.4495

                     43                     44                     45
                      A                      A                      A
 Frequencies --   1340.4190              1369.6765              1379.9255
 Red. masses --      1.2664                 1.4716                 1.2195
 Frc consts  --      1.3406                 1.6266                 1.3682
 IR Inten    --     15.2547                42.3226                13.5025

                     46                     47                     48
                      A                      A                      A
 Frequencies --   1392.8107              1408.5764              1412.2919
 Red. masses --      1.2125                 1.4250                 1.2552
 Frc consts  --      1.3859                 1.6658                 1.4751
 IR Inten    --     46.6344                15.8603                19.2950

                     49                     50                     51
                      A                      A                      A
 Frequencies --   1430.0028              1454.2900              1457.2281
 Red. masses --      1.4625                 1.5558                 1.4499
 Frc consts  --      1.7620                 1.9387                 1.8141
 IR Inten    --     16.5326                20.8732                 6.1009

                     52                     53                     54
                      A                      A                      A
 Frequencies --   1480.7061              1491.9301              1548.4601
 Red. masses --      1.5495                 1.2453                 1.0881
 Frc consts  --      2.0015                 1.6331                 1.5371
 IR Inten    --      0.8940               146.0006                 5.1547

                     55                     56                     57
                      A                      A                      A
 Frequencies --   2976.5721              3007.2839              3012.4476
 Red. masses --      1.0819                 1.0836                 1.0648
 Frc consts  --      5.6479                 5.7738                 5.6933
 IR Inten    --     15.5914                27.3624                25.5617

                     58                     59                     60
                      A                      A                      A
 Frequencies --   3022.8109              3040.1730              3059.7160
 Red. masses --      1.0819                 1.0859                 1.0940
 Frc consts  --      5.8243                 5.9131                 6.0344
 IR Inten    --     19.5947                95.9532                21.6928

                     61                     62                     63
                      A                      A                      A
 Frequencies --   3077.0823              3673.3534              3692.3918
 Red. masses --      1.0957                 1.0645                 1.0654
 Frc consts  --      6.1126                 8.4630                 8.5577
 IR Inten    --     67.8489                79.1182               119.9837

                     64                     65                     66
                      A                      A                      A
 Frequencies --   3711.1907              3765.2512              3768.8171
 Red. masses --      1.0653                 1.0666                 1.0668
 Frc consts  --      8.6450                 8.9090                 8.9277
 IR Inten    --     37.0751                43.4889                26.5197

 - Thermochemistry -
 -------------------
 Temperature   298.150 Kelvin.  Pressure   1.00000 Atm.
 Atom     1 has atomic number  1 and mass   1.00783

 Molecular mass:   180.06339 amu.
 Principal axes and moments of inertia in atomic units:
                           1         2         3
     Eigenvalues --  1407.238182328.909303490.05848
           X            0.99946  -0.03271   0.00360
           Y            0.03273   0.99944  -0.00711
           Z           -0.00336   0.00723   0.99997
 This molecule is an asymmetric top.
 Rotational symmetry number  1.
 Warning -- assumption of classical behavior for rotation
           may cause significant error
 Rotational temperatures (Kelvin)      0.06155     0.03719     0.02482
 Rotational constants (GHZ):           1.28247     0.77493     0.51711
 Zero-point vibrational energy     518801.9 (Joules/Mol)
                                  123.99663 (Kcal/Mol)
 Warning -- explicit consideration of  21 degrees of freedom as
           vibrations may cause significant error
 Vibrational temperatures:     71.60   121.72   173.87   212.05   290.17
          (Kelvin)            319.65   354.84   378.89   408.92   437.18
                              462.68   501.66   575.68   599.69   634.13
                              650.69   697.37   721.91   744.20   776.30
                              860.18   996.43  1104.72  1211.95  1312.42
                             1441.73  1457.74  1508.80  1525.00  1562.64
                             1588.82  1595.50  1628.93  1636.02  1661.61
                             1713.61  1746.43  1774.34  1801.98  1808.26
                             1843.82  1908.85  1928.56  1970.66  1985.40
                             2003.94  2026.62  2031.97  2057.45  2092.40
                             2096.62  2130.40  2146.55  2227.89  4282.62
                             4326.81  4334.23  4349.15  4374.13  4402.24
                             4427.23  5285.13  5312.52  5339.57  5417.35
                             5422.48

 Zero-point correction=                           0.197601 (Hartree/Particle)
 Thermal correction to Energy=                    0.209967
 Thermal correction to Enthalpy=                  0.210911
 Thermal correction to Gibbs Free Energy=         0.159620
 Sum of electronic and zero-point Energies=           -686.941778
 Sum of electronic and thermal Energies=              -686.929412
 Sum of electronic and thermal Enthalpies=            -686.928468
 Sum of electronic and thermal Free Energies=         -686.979759

                     E (Thermal)             CV                S
                      KCal/Mol        Cal/Mol-Kelvin    Cal/Mol-Kelvin
 Total                  131.756             47.020            107.952
 Electronic               0.000              0.000              0.000
 Translational            0.889              2.981             41.471
 Rotational               0.889              2.981             30.815
 Vibrational            129.979             41.059             35.666
 Vibration     1          0.595              1.978              4.827
 Vibration     2          0.601              1.960              3.781
 Vibration     3          0.609              1.932              3.087
 Vibration     4          0.617              1.906              2.706
 Vibration     5          0.639              1.838              2.118
 Vibration     6          0.648              1.807              1.941
 Vibration     7          0.661              1.768              1.755
 Vibration     8          0.670              1.740              1.640
 Vibration     9          0.683              1.703              1.508
 Vibration    10          0.695              1.666              1.396
 Vibration    11          0.707              1.632              1.302
 Vibration    12          0.726              1.578              1.172
 Vibration    13          0.766              1.470              0.962
 Vibration    14          0.780              1.434              0.903
 Vibration    15          0.801              1.381              0.824
 Vibration    16          0.811              1.356              0.789
 Vibration    17          0.841              1.284              0.698
 Vibration    18          0.857              1.246              0.654
 Vibration    19          0.872              1.212              0.616
 Vibration    20          0.895              1.163              0.566
 Vibration    21          0.956              1.036              0.453

 Normal termination of Gaussian 09 at Tue Jun 14 00:50:21 2016.
