 Gaussian 09, Revision E.01,
 Gaussian 09:  ES64L-G09RevE.01 30-Nov-2015

 -----------------------------------------
 # opt=(MaxCycle=1000) freq B3LYP/6-31G(d)
 -----------------------------------------

 -------------------------
 boat1_Alpha_B3LYP_6-31G_d
 -------------------------
 Symbolic Z-matrix:
 Charge =  0 Multiplicity = 1

 SCF Done:  E(RB3LYP) =  -687.115428716     A.U. after   14 cycles
 SCF Done:  E(RB3LYP) =  -687.125035202     A.U. after   12 cycles
 SCF Done:  E(RB3LYP) =  -687.127863250     A.U. after   12 cycles
 SCF Done:  E(RB3LYP) =  -687.130421449     A.U. after   12 cycles
 SCF Done:  E(RB3LYP) =  -687.131982425     A.U. after   12 cycles
 SCF Done:  E(RB3LYP) =  -687.133376039     A.U. after   12 cycles
 SCF Done:  E(RB3LYP) =  -687.134716743     A.U. after   12 cycles
 SCF Done:  E(RB3LYP) =  -687.135972160     A.U. after   13 cycles
 SCF Done:  E(RB3LYP) =  -687.137430619     A.U. after   12 cycles
 SCF Done:  E(RB3LYP) =  -687.138769567     A.U. after   12 cycles
 SCF Done:  E(RB3LYP) =  -687.139080584     A.U. after   11 cycles
 SCF Done:  E(RB3LYP) =  -687.139211100     A.U. after   10 cycles
 SCF Done:  E(RB3LYP) =  -687.139284625     A.U. after   11 cycles
 SCF Done:  E(RB3LYP) =  -687.139329729     A.U. after   11 cycles
 SCF Done:  E(RB3LYP) =  -687.139356800     A.U. after   11 cycles
 SCF Done:  E(RB3LYP) =  -687.139370600     A.U. after    9 cycles
 SCF Done:  E(RB3LYP) =  -687.139378352     A.U. after    9 cycles
 SCF Done:  E(RB3LYP) =  -687.139379287     A.U. after    7 cycles
 SCF Done:  E(RB3LYP) =  -687.139379344     A.U. after    7 cycles
 Optimization completed.
    -- Stationary point found.
 Normal termination of Gaussian 09 at Thu Jan 12 11:44:25 2017.

 --------------------------------------------------------------------
 #N Geom=AllCheck Guess=TCheck SCRF=Check GenChk RB3LYP/6-31G(d) Freq
 --------------------------------------------------------------------

 Structure from the checkpoint file:  "/scratch/10454683.yak.local/Gau-17881.chk"
 -------------------------
 boat1_Alpha_B3LYP_6-31G_d
 -------------------------
 Charge =  0 Multiplicity = 1

                         Standard orientation:
 ---------------------------------------------------------------------
 Center     Atomic      Atomic             Coordinates (Angstroms)
 Number     Number       Type             X           Y           Z
 ---------------------------------------------------------------------
      1          1           0        1.337969   -0.297123   -1.567297
      2          6           0        1.047366   -0.548000   -0.540239
      3          6           0       -0.633495    1.248909   -0.173833
      4          6           0       -1.076381   -1.181801    0.412508
      5          6           0       -1.661815    0.254806    0.372145
      6          8           0       -0.119925   -1.365362   -0.642600
      7          6           0        0.775799    0.790554    0.179542
      8          1           0       -1.923424    0.552943    1.397819
      9          1           0        0.848146    0.661649    1.273055
     10          6           0        2.185316   -1.334160    0.113466
     11          1           0        2.409455   -2.227209   -0.484863
     12          1           0        1.882159   -1.662319    1.119420
     13          1           0       -0.721077    1.249635   -1.271971
     14          8           0        3.313037   -0.451772    0.181071
     15          1           0        4.035073   -0.900902    0.644259
     16          8           0       -2.831485    0.206095   -0.442106
     17          1           0       -3.237135    1.086376   -0.429484
     18          8           0       -0.921522    2.535881    0.351396
     19          1           0       -0.147259    3.085147    0.138091
     20          8           0        1.673700    1.806950   -0.242288
     21          1           0        2.566912    1.464282   -0.057873
     22          1           0       -0.579205   -1.345783    1.378769
     23          8           0       -2.058954   -2.141641    0.292838
     24          1           0       -2.731142   -1.769748   -0.307933
 ---------------------------------------------------------------------

 SCF Done:  E(RB3LYP) =  -687.139379344     A.U. after    1 cycles

 The electronic state is 1-A.
 Alpha  occ. eigenvalues --  -19.17406 -19.16127 -19.14925 -19.14900 -19.14664
 Alpha  occ. eigenvalues --  -19.14494 -10.28573 -10.24559 -10.24182 -10.24170
 Alpha  occ. eigenvalues --  -10.24044 -10.23535  -1.06979  -1.04450  -1.03478
 Alpha  occ. eigenvalues --   -1.02776  -1.00746  -1.00099  -0.78200  -0.76612
 Alpha  occ. eigenvalues --   -0.69440  -0.64455  -0.62225  -0.57828  -0.55410
 Alpha  occ. eigenvalues --   -0.54917  -0.52419  -0.50818  -0.48285  -0.47810
 Alpha  occ. eigenvalues --   -0.47137  -0.45039  -0.43409  -0.42674  -0.41819
 Alpha  occ. eigenvalues --   -0.39787  -0.38823  -0.37024  -0.35469  -0.34849
 Alpha  occ. eigenvalues --   -0.33021  -0.32688  -0.29595  -0.29265  -0.28274
 Alpha  occ. eigenvalues --   -0.27385  -0.26825  -0.25093
 Alpha virt. eigenvalues --    0.04190   0.06393   0.07718   0.10115   0.10649
 Alpha virt. eigenvalues --    0.13337   0.13611   0.14521   0.15122   0.15695
 Alpha virt. eigenvalues --    0.16144   0.17015   0.17883   0.19098   0.20608

 Mulliken charges:
               1
     1  H    0.155334
     2  C    0.117917
     3  C    0.125937
     4  C    0.336925
     5  C    0.100977
     6  O   -0.501939
     7  C    0.081910
     8  H    0.141654
     9  H    0.117513
    10  C   -0.055156
    11  H    0.150097
    12  H    0.133443
    13  H    0.138267
    14  O   -0.640262
    15  H    0.408628
    16  O   -0.660842
    17  H    0.415522
    18  O   -0.659809
    19  H    0.413653
    20  O   -0.670080
    21  H    0.424020
    22  H    0.120297
    23  O   -0.617682
    24  H    0.423676
 Sum of Mulliken charges =  -0.00000

 Dipole moment (field-independent basis, Debye):
    X=              2.6216    Y=              0.4009    Z=              1.2447  Tot=              2.9296
 Quadrupole moment (field-independent basis, Debye-Ang):
   XX=            -57.5065   YY=            -76.0357   ZZ=            -69.9795
   XY=             -9.0106   XZ=              5.3900   YZ=             -2.1968

  Exact polarizability:  94.295   0.140  82.056   0.818  -1.432  64.973
 Approx polarizability: 119.112   4.503 112.994   1.245  -1.273 101.454

                      1                      2                      3
                      A                      A                      A
 Frequencies --     49.6888                84.6380               120.7854
 Red. masses --      6.5751                 6.0720                 4.8469
 Frc consts  --      0.0096                 0.0256                 0.0417
 IR Inten    --      2.8274                 3.2117                 3.8415

                      4                      5                      6
                      A                      A                      A
 Frequencies --    147.3360               202.0033               222.7322
 Red. masses --      4.1827                 1.6747                 1.3519
 Frc consts  --      0.0535                 0.0403                 0.0395
 IR Inten    --     10.9856               100.5178                38.8591

                      7                      8                      9
                      A                      A                      A
 Frequencies --    246.7412               263.3599               284.2507
 Red. masses --      1.6574                 2.6650                 3.8882
 Frc consts  --      0.0595                 0.1089                 0.1851
 IR Inten    --     79.7313                23.2583                36.7749

                     10                     11                     12
                      A                      A                      A
 Frequencies --    303.7789               321.5018               348.6523
 Red. masses --      5.5601                 4.4262                 4.5012
 Frc consts  --      0.3023                 0.2696                 0.3224
 IR Inten    --      6.3670                11.7339                 0.9524

                     13                     14                     15
                      A                      A                      A
 Frequencies --    400.1597               416.7949               440.8177
 Red. masses --      7.1847                 4.5255                 1.5190
 Frc consts  --      0.6778                 0.4632                 0.1739
 IR Inten    --      1.9721                17.1146                97.8325

                     16                     17                     18
                      A                      A                      A
 Frequencies --    452.3022               484.6139               501.6777
 Red. masses --      2.7183                 1.5998                 2.3388
 Frc consts  --      0.3276                 0.2214                 0.3468
 IR Inten    --     47.4658                53.8521                23.8761

                     19                     20                     21
                      A                      A                      A
 Frequencies --    517.2136               539.5271               597.9002
 Red. masses --      2.8146                 1.1989                 3.2380
 Frc consts  --      0.4436                 0.2056                 0.6820
 IR Inten    --     19.0393                97.7159                18.1519

                     22                     23                     24
                      A                      A                      A
 Frequencies --    692.5388               767.8509               842.3625
 Red. masses --      6.5591                 4.4520                 3.2734
 Frc consts  --      1.8534                 1.5465                 1.3685
 IR Inten    --      6.6430                73.9722                29.9247

                     25                     26                     27
                      A                      A                      A
 Frequencies --    912.2065              1002.0671              1013.1688
 Red. masses --      1.8863                 4.3241                 2.9656
 Frc consts  --      0.9248                 2.5583                 1.7936
 IR Inten    --      0.7606                75.5415                21.3057

                     28                     29                     30
                      A                      A                      A
 Frequencies --   1048.7567              1059.9014              1086.0616
 Red. masses --      3.2511                 6.0412                 4.0687
 Frc consts  --      2.1068                 3.9986                 2.8276
 IR Inten    --     40.1645                46.8666               258.5065

                     31                     32                     33
                      A                      A                      A
 Frequencies --   1104.4372              1109.0504              1132.2924
 Red. masses --      3.3647                 2.8970                 3.5950
 Frc consts  --      2.4181                 2.0994                 2.7156
 IR Inten    --    102.6917                41.7925                93.1376

                     34                     35                     36
                      A                      A                      A
 Frequencies --   1137.2225              1155.0005              1191.0412
 Red. masses --      3.0020                 3.7196                 2.4890
 Frc consts  --      2.2874                 2.9236                 2.0803
 IR Inten    --     14.0749                21.0570               115.2986

                     37                     38                     39
                      A                      A                      A
 Frequencies --   1213.8835              1233.2740              1252.4567
 Red. masses --      1.2165                 1.1866                 1.2202
 Frc consts  --      1.0561                 1.0633                 1.1278
 IR Inten    --     62.2884                17.7022                28.5670

                     40                     41                     42
                      A                      A                      A
 Frequencies --   1256.8805              1281.5483              1326.7069
 Red. masses --      1.1857                 1.1386                 1.2644
 Frc consts  --      1.1036                 1.1018                 1.3112
 IR Inten    --     22.3953                27.7150                30.4091

                     43                     44                     45
                      A                      A                      A
 Frequencies --   1340.4518              1369.6862              1379.9326
 Red. masses --      1.2664                 1.4719                 1.2194
 Frc consts  --      1.3407                 1.6270                 1.3680
 IR Inten    --     15.2600                42.4957                13.5200

                     46                     47                     48
                      A                      A                      A
 Frequencies --   1392.8403              1408.5718              1412.2603
 Red. masses --      1.2124                 1.4244                 1.2556
 Frc consts  --      1.3858                 1.6651                 1.4755
 IR Inten    --     46.5277                16.0477                19.1350

                     49                     50                     51
                      A                      A                      A
 Frequencies --   1430.0408              1454.3469              1457.2580
 Red. masses --      1.4632                 1.5548                 1.4507
 Frc consts  --      1.7630                 1.9376                 1.8151
 IR Inten    --     16.6712                20.6945                 6.2549

                     52                     53                     54
                      A                      A                      A
 Frequencies --   1480.7130              1491.7631              1548.4859
 Red. masses --      1.5492                 1.2456                 1.0881
 Frc consts  --      2.0012                 1.6332                 1.5372
 IR Inten    --      0.8748               145.8856                 5.1524

                     55                     56                     57
                      A                      A                      A
 Frequencies --   2976.3870              3007.0413              3012.5160
 Red. masses --      1.0819                 1.0836                 1.0647
 Frc consts  --      5.6471                 5.7728                 5.6928
 IR Inten    --     15.6757                27.4436                25.9020

                     58                     59                     60
                      A                      A                      A
 Frequencies --   3022.8978              3040.1956              3059.6242
 Red. masses --      1.0820                 1.0859                 1.0940
 Frc consts  --      5.8253                 5.9132                 6.0340
 IR Inten    --     18.7008                96.3827                21.6576

                     61                     62                     63
                      A                      A                      A
 Frequencies --   3076.9923              3673.6403              3692.4538
 Red. masses --      1.0958                 1.0645                 1.0654
 Frc consts  --      6.1124                 8.4643                 8.5580
 IR Inten    --     67.9378                79.0228               119.9481

                     64                     65                     66
                      A                      A                      A
 Frequencies --   3711.0683              3764.8885              3768.7032
 Red. masses --      1.0653                 1.0666                 1.0668
 Frc consts  --      8.6444                 8.9073                 8.9271
 IR Inten    --     37.0702                43.4123                26.5905

 - Thermochemistry -
 -------------------
 Temperature   298.150 Kelvin.  Pressure   1.00000 Atm.
 Atom     1 has atomic number  1 and mass   1.00783

 Molecular mass:   180.06339 amu.
 Principal axes and moments of inertia in atomic units:
                           1         2         3
     Eigenvalues --  1407.221552328.807033489.93747
           X            0.99946  -0.03270   0.00360
           Y            0.03273   0.99944  -0.00712
           Z           -0.00336   0.00723   0.99997
 This molecule is an asymmetric top.
 Rotational symmetry number  1.
 Warning -- assumption of classical behavior for rotation
           may cause significant error
 Rotational temperatures (Kelvin)      0.06155     0.03719     0.02482
 Rotational constants (GHZ):           1.28249     0.77496     0.51713
 Zero-point vibrational energy     518808.1 (Joules/Mol)
                                  123.99811 (Kcal/Mol)
 Warning -- explicit consideration of  21 degrees of freedom as
           vibrations may cause significant error
 Vibrational temperatures:     71.49   121.78   173.78   211.98   290.64
          (Kelvin)            320.46   355.01   378.92   408.97   437.07
                              462.57   501.63   575.74   599.67   634.24
                              650.76   697.25   721.80   744.15   776.26
                              860.24   996.41  1104.76  1211.97  1312.46
                             1441.75  1457.72  1508.93  1524.96  1562.60
                             1589.04  1595.67  1629.11  1636.21  1661.79
                             1713.64  1746.51  1774.40  1802.00  1808.37
                             1843.86  1908.83  1928.61  1970.67  1985.41
                             2003.98  2026.62  2031.93  2057.51  2092.48
                             2096.67  2130.41  2146.31  2227.92  4282.35
                             4326.46  4334.33  4349.27  4374.16  4402.11
                             4427.10  5285.54  5312.61  5339.39  5416.83
                             5422.32

 Zero-point correction=                           0.197604 (Hartree/Particle)
 Thermal correction to Energy=                    0.209968
 Thermal correction to Enthalpy=                  0.210913
 Thermal correction to Gibbs Free Energy=         0.159623
 Sum of electronic and zero-point Energies=           -686.941776
 Sum of electronic and thermal Energies=              -686.929411
 Sum of electronic and thermal Enthalpies=            -686.928467
 Sum of electronic and thermal Free Energies=         -686.979756

                     E (Thermal)             CV                S
                      KCal/Mol        Cal/Mol-Kelvin    Cal/Mol-Kelvin
 Total                  131.757             47.018            107.947
 Electronic               0.000              0.000              0.000
 Translational            0.889              2.981             41.471
 Rotational               0.889              2.981             30.815
 Vibrational            129.980             41.057             35.661
 Vibration     1          0.595              1.978              4.830
 Vibration     2          0.601              1.960              3.780
 Vibration     3          0.609              1.932              3.088
 Vibration     4          0.617              1.906              2.706
 Vibration     5          0.639              1.837              2.115
 Vibration     6          0.648              1.806              1.937
 Vibration     7          0.661              1.768              1.754
 Vibration     8          0.670              1.740              1.639
 Vibration     9          0.683              1.703              1.508
 Vibration    10          0.695              1.667              1.396
 Vibration    11          0.707              1.632              1.302
 Vibration    12          0.726              1.578              1.172
 Vibration    13          0.766              1.470              0.962
 Vibration    14          0.780              1.434              0.903
 Vibration    15          0.801              1.381              0.824
 Vibration    16          0.811              1.356              0.789
 Vibration    17          0.841              1.284              0.698
 Vibration    18          0.857              1.246              0.654
 Vibration    19          0.872              1.212              0.616
 Vibration    20          0.895              1.163              0.566
 Vibration    21          0.956              1.036              0.453

 Optimization completed.
    -- Stationary point found.
 Normal termination of Gaussian 09 at Thu Jan 12 11:49:22 2017.
