 Gaussian 09, Revision E.01,
 Gaussian 09:  ES64L-G09RevE.01 30-Nov-2015

 -----------------------------------------
 # opt=(MaxCycle=1000) freq B3LYP/6-31G(d)
 -----------------------------------------

 -------------------------
 boat3_Alpha_B3LYP_6-31G_d
 -------------------------
 Symbolic Z-matrix:
 Charge =  0 Multiplicity = 1

 SCF Done:  E(RB3LYP) =  -687.104327639     A.U. after   14 cycles
 SCF Done:  E(RB3LYP) =  -687.124311890     A.U. after   12 cycles
 SCF Done:  E(RB3LYP) =  -687.129051683     A.U. after   11 cycles
 SCF Done:  E(RB3LYP) =  -687.131940243     A.U. after   12 cycles
 SCF Done:  E(RB3LYP) =  -687.123757202     A.U. after   14 cycles
 SCF Done:  E(RB3LYP) =  -687.134593810     A.U. after   11 cycles
 SCF Done:  E(RB3LYP) =  -687.135822207     A.U. after   12 cycles
 SCF Done:  E(RB3LYP) =  -687.136597994     A.U. after   11 cycles
 SCF Done:  E(RB3LYP) =  -687.136799944     A.U. after   11 cycles
 SCF Done:  E(RB3LYP) =  -687.136856569     A.U. after   11 cycles
 SCF Done:  E(RB3LYP) =  -687.136992936     A.U. after   10 cycles
 SCF Done:  E(RB3LYP) =  -687.137038167     A.U. after   10 cycles
 SCF Done:  E(RB3LYP) =  -687.137048116     A.U. after   10 cycles
 SCF Done:  E(RB3LYP) =  -687.137055434     A.U. after    9 cycles
 SCF Done:  E(RB3LYP) =  -687.137064193     A.U. after   10 cycles
 SCF Done:  E(RB3LYP) =  -687.137067068     A.U. after    9 cycles
 SCF Done:  E(RB3LYP) =  -687.137067782     A.U. after    7 cycles
 SCF Done:  E(RB3LYP) =  -687.137068142     A.U. after    7 cycles
 Optimization completed.
    -- Stationary point found.
 Normal termination of Gaussian 09 at Thu Jan 12 12:02:14 2017.

 --------------------------------------------------------------------
 #N Geom=AllCheck Guess=TCheck SCRF=Check GenChk RB3LYP/6-31G(d) Freq
 --------------------------------------------------------------------

 Structure from the checkpoint file:  "/scratch/10454687.yak.local/Gau-25667.chk"
 -------------------------
 boat3_Alpha_B3LYP_6-31G_d
 -------------------------
 Charge =  0 Multiplicity = 1

                         Standard orientation:
 ---------------------------------------------------------------------
 Center     Atomic      Atomic             Coordinates (Angstroms)
 Number     Number       Type             X           Y           Z
 ---------------------------------------------------------------------
      1          6           0       -0.574266    0.059618    1.059074
      2          6           0        1.264706    0.608800   -0.672670
      3          8           0       -0.087505   -1.400705   -0.910203
      4          6           0        1.209764   -0.913792   -0.816834
      5          6           0       -1.115173   -0.843912   -0.054761
      6          6           0        0.430946    1.115523    0.522252
      7          1           0        1.114015    1.332767    1.356248
      8          1           0        0.844424    1.051531   -1.585435
      9          1           0       -1.595305   -1.703203    0.432112
     10          1           0       -1.436402    0.588587    1.481525
     11          6           0       -2.143806   -0.146167   -0.959753
     12          1           0       -2.388317   -0.819044   -1.794181
     13          1           0       -1.726542    0.774067   -1.375752
     14          8           0       -3.303407    0.248897   -0.235163
     15          1           0       -3.768352   -0.556425    0.041647
     16          8           0        2.652994    0.923660   -0.552101
     17          1           0        2.733323    1.884317   -0.443786
     18          8           0       -0.200624    2.311444    0.059633
     19          1           0       -0.759717    2.653569    0.775643
     20          8           0       -0.015736   -0.687167    2.125298
     21          1           0        0.715067   -1.210340    1.736034
     22          1           0        1.708609   -1.219587   -1.744001
     23          8           0        1.882825   -1.527402    0.291997
     24          1           0        2.697806   -1.006469    0.420400
 ---------------------------------------------------------------------

 SCF Done:  E(RB3LYP) =  -687.137068142     A.U. after    1 cycles

 The electronic state is 1-A.
 Alpha  occ. eigenvalues --  -19.17202 -19.16635 -19.16512 -19.16180 -19.15328
 Alpha  occ. eigenvalues --  -19.13000 -10.29586 -10.25012 -10.24585 -10.24149
 Alpha  occ. eigenvalues --  -10.23816 -10.23203  -1.08132  -1.04420  -1.03230
 Alpha  occ. eigenvalues --   -1.02384  -1.01041  -1.00690  -0.78018  -0.77338
 Alpha  occ. eigenvalues --   -0.68835  -0.65934  -0.63705  -0.57154  -0.55349
 Alpha  occ. eigenvalues --   -0.54210  -0.52177  -0.50769  -0.49280  -0.48580
 Alpha  occ. eigenvalues --   -0.47492  -0.44985  -0.44361  -0.42320  -0.41112
 Alpha  occ. eigenvalues --   -0.39540  -0.38039  -0.37373  -0.36927  -0.35587
 Alpha  occ. eigenvalues --   -0.34299  -0.31704  -0.30088  -0.29425  -0.29081
 Alpha  occ. eigenvalues --   -0.28285  -0.26271  -0.25188
 Alpha virt. eigenvalues --    0.05486   0.06182   0.06839   0.08566   0.10466
 Alpha virt. eigenvalues --    0.11531   0.12456   0.14196   0.14971   0.15338
 Alpha virt. eigenvalues --    0.16965   0.17450   0.19336   0.19399   0.19934

 Mulliken charges:
               1
     1  C    0.100009
     2  C    0.077504
     3  O   -0.504281
     4  C    0.346601
     5  C    0.094095
     6  C    0.079491
     7  H    0.138520
     8  H    0.158146
     9  H    0.140166
    10  H    0.144990
    11  C   -0.064735
    12  H    0.140017
    13  H    0.169516
    14  O   -0.613584
    15  H    0.393243
    16  O   -0.649831
    17  H    0.411288
    18  O   -0.637883
    19  H    0.401398
    20  O   -0.663207
    21  H    0.420170
    22  H    0.148788
    23  O   -0.648180
    24  H    0.417758
 Sum of Mulliken charges =  -0.00000

 Dipole moment (field-independent basis, Debye):
    X=              0.4398    Y=              1.5060    Z=             -0.3719  Tot=              1.6124
 Quadrupole moment (field-independent basis, Debye-Ang):
   XX=            -64.7954   YY=            -69.8391   ZZ=            -74.1351
   XY=              7.7536   XZ=             -0.6098   YZ=              3.6786

  Exact polarizability:  90.785   0.602  75.551  -1.855   0.450  73.303
 Approx polarizability: 119.348  -1.792 109.329  -2.498  -1.475 108.018

                      1                      2                      3
                      A                      A                      A
 Frequencies --     34.0250                70.8248               137.6212
 Red. masses --      5.6420                 5.2791                 4.2052
 Frc consts  --      0.0038                 0.0156                 0.0469
 IR Inten    --      0.2230                 4.9507                 4.8549

                      4                      5                      6
                      A                      A                      A
 Frequencies --    186.6432               226.4365               243.6884
 Red. masses --      3.1283                 5.6546                 4.2780
 Frc consts  --      0.0642                 0.1708                 0.1497
 IR Inten    --      6.0497                13.1508                 0.7212

                      7                      8                      9
                      A                      A                      A
 Frequencies --    252.8369               273.8989               291.9667
 Red. masses --      4.6189                 4.3921                 2.3624
 Frc consts  --      0.1740                 0.1941                 0.1187
 IR Inten    --      1.0263                 3.8771                27.8196

                     10                     11                     12
                      A                      A                      A
 Frequencies --    327.5156               341.7156               368.5161
 Red. masses --      1.2179                 1.5098                 4.0130
 Frc consts  --      0.0770                 0.1039                 0.3211
 IR Inten    --    132.8042               119.2781                 8.5446

                     13                     14                     15
                      A                      A                      A
 Frequencies --    380.4578               410.4870               458.5269
 Red. masses --      1.3428                 4.1602                 2.2887
 Frc consts  --      0.1145                 0.4130                 0.2835
 IR Inten    --     95.6433                18.1873                48.7885

                     16                     17                     18
                      A                      A                      A
 Frequencies --    462.0550               493.3934               508.6314
 Red. masses --      2.5392                 2.1069                 5.8039
 Frc consts  --      0.3194                 0.3022                 0.8847
 IR Inten    --     26.1350                49.6205                 2.4552

                     19                     20                     21
                      A                      A                      A
 Frequencies --    571.7713               597.7552               686.0674
 Red. masses --      4.6450                 4.7910                 4.0955
 Frc consts  --      0.8947                 1.0086                 1.1358
 IR Inten    --     21.8309                 5.6824                 2.4231

                     22                     23                     24
                      A                      A                      A
 Frequencies --    719.0106               807.3372               831.6257
 Red. masses --      1.2321                 3.4399                 3.0443
 Frc consts  --      0.3753                 1.3210                 1.2405
 IR Inten    --    127.6056                23.7539                16.1109

                     25                     26                     27
                      A                      A                      A
 Frequencies --    904.5990               961.6486               993.6071
 Red. masses --      3.0906                 3.4260                 2.2526
 Frc consts  --      1.4901                 1.8667                 1.3103
 IR Inten    --     28.6863                 6.5739                43.9032

                     28                     29                     30
                      A                      A                      A
 Frequencies --   1027.5199              1049.0374              1076.5691
 Red. masses --      3.6672                 2.9029                 4.7689
 Frc consts  --      2.2812                 1.8822                 3.2565
 IR Inten    --     57.6046                48.9403               133.5232

                     31                     32                     33
                      A                      A                      A
 Frequencies --   1086.7933              1093.4624              1105.1473
 Red. masses --      2.1970                 3.7285                 3.4376
 Frc consts  --      1.5289                 2.6266                 2.4737
 IR Inten    --     41.5234                17.8179                39.1079

                     34                     35                     36
                      A                      A                      A
 Frequencies --   1120.0395              1121.2159              1150.2519
 Red. masses --      1.8611                 4.5289                 3.7231
 Frc consts  --      1.3756                 3.3545                 2.9023
 IR Inten    --     32.2152                58.9689               281.6911

                     37                     38                     39
                      A                      A                      A
 Frequencies --   1205.7649              1233.0834              1251.6722
 Red. masses --      1.3012                 1.1769                 1.1427
 Frc consts  --      1.1146                 1.0543                 1.0548
 IR Inten    --      9.1758                79.7975                52.7298

                     40                     41                     42
                      A                      A                      A
 Frequencies --   1295.4461              1308.5497              1319.5812
 Red. masses --      1.7044                 1.2607                 1.1977
 Frc consts  --      1.6852                 1.2718                 1.2288
 IR Inten    --      3.2108                25.9831                14.9830

                     43                     44                     45
                      A                      A                      A
 Frequencies --   1350.4540              1359.7630              1367.9629
 Red. masses --      1.1856                 1.2654                 1.2758
 Frc consts  --      1.2740                 1.3785                 1.4066
 IR Inten    --     11.5242                36.6318                19.6338

                     46                     47                     48
                      A                      A                      A
 Frequencies --   1388.9417              1399.4928              1412.0902
 Red. masses --      1.2488                 1.2805                 1.5310
 Frc consts  --      1.4195                 1.4776                 1.7986
 IR Inten    --     28.9080                 6.3419                12.8685

                     49                     50                     51
                      A                      A                      A
 Frequencies --   1428.6090              1439.2486              1449.8350
 Red. masses --      1.4304                 1.2614                 1.5626
 Frc consts  --      1.7201                 1.5395                 1.9352
 IR Inten    --     12.4650                17.3651                18.5379

                     52                     53                     54
                      A                      A                      A
 Frequencies --   1469.8052              1502.5058              1532.1309
 Red. masses --      1.5854                 1.1758                 1.0861
 Frc consts  --      2.0179                 1.5639                 1.5021
 IR Inten    --     16.8846                95.3927                 3.9097

                     55                     56                     57
                      A                      A                      A
 Frequencies --   3022.2891              3032.1301              3044.4966
 Red. masses --      1.0848                 1.0710                 1.0845
 Frc consts  --      5.8381                 5.8014                 5.9226
 IR Inten    --     35.5098                46.1656                38.7579

                     58                     59                     60
                      A                      A                      A
 Frequencies --   3050.5693              3072.6750              3077.4972
 Red. masses --      1.0847                 1.0874                 1.0861
 Frc consts  --      5.9473                 6.0487                 6.0608
 IR Inten    --     25.4180                70.4621                11.5467

                     61                     62                     63
                      A                      A                      A
 Frequencies --   3136.6668              3583.6016              3679.3195
 Red. masses --      1.0964                 1.0656                 1.0646
 Frc consts  --      6.3557                 8.0625                 8.4912
 IR Inten    --     17.4722               189.7619                49.1928

                     64                     65                     66
                      A                      A                      A
 Frequencies --   3736.3942              3736.6167              3750.1719
 Red. masses --      1.0662                 1.0661                 1.0665
 Frc consts  --      8.7699                 8.7697                 8.8374
 IR Inten    --     14.6196                16.6291                31.0455

 - Thermochemistry -
 -------------------
 Temperature   298.150 Kelvin.  Pressure   1.00000 Atm.
 Atom     1 has atomic number  6 and mass  12.00000

 Molecular mass:   180.06339 amu.
 Principal axes and moments of inertia in atomic units:
                           1         2         3
     Eigenvalues --  1392.352032353.979792654.08702
           X            0.99986   0.01613   0.00431
           Y           -0.01621   0.99971   0.01757
           Z           -0.00403  -0.01764   0.99984
 This molecule is an asymmetric top.
 Rotational symmetry number  1.
 Warning -- assumption of classical behavior for rotation
           may cause significant error
 Rotational temperatures (Kelvin)      0.06221     0.03679     0.03263
 Rotational constants (GHZ):           1.29618     0.76668     0.67999
 Zero-point vibrational energy     520435.8 (Joules/Mol)
                                  124.38713 (Kcal/Mol)
 Warning -- explicit consideration of  20 degrees of freedom as
           vibrations may cause significant error
 Vibrational temperatures:     48.95   101.90   198.01   268.54   325.79
          (Kelvin)            350.61   363.78   394.08   420.07   471.22
                              491.65   530.21   547.39   590.60   659.72
                              664.79   709.88   731.81   822.65   860.04
                              987.10  1034.49  1161.58  1196.52  1301.51
                             1383.60  1429.58  1478.37  1509.33  1548.94
                             1563.65  1573.25  1590.06  1611.49  1613.18
                             1654.95  1734.82  1774.13  1800.87  1863.86
                             1882.71  1898.58  1943.00  1956.39  1968.19
                             1998.37  2013.56  2031.68  2055.45  2070.76
                             2085.99  2114.72  2161.77  2204.39  4348.39
                             4362.55  4380.35  4389.08  4420.89  4427.83
                             4512.96  5156.00  5293.71  5375.83  5376.15
                             5395.65

 Zero-point correction=                           0.198224 (Hartree/Particle)
 Thermal correction to Energy=                    0.210264
 Thermal correction to Enthalpy=                  0.211208
 Thermal correction to Gibbs Free Energy=         0.160427
 Sum of electronic and zero-point Energies=           -686.938845
 Sum of electronic and thermal Energies=              -686.926804
 Sum of electronic and thermal Enthalpies=            -686.925860
 Sum of electronic and thermal Free Energies=         -686.976641

                     E (Thermal)             CV                S
                      KCal/Mol        Cal/Mol-Kelvin    Cal/Mol-Kelvin
 Total                  131.943             46.395            106.878
 Electronic               0.000              0.000              0.000
 Translational            0.889              2.981             41.471
 Rotational               0.889              2.981             30.543
 Vibrational            130.165             40.434             34.864
 Vibration     1          0.594              1.983              5.580
 Vibration     2          0.598              1.968              4.130
 Vibration     3          0.614              1.916              2.837
 Vibration     4          0.632              1.858              2.261
 Vibration     5          0.650              1.801              1.907
 Vibration     6          0.659              1.773              1.776
 Vibration     7          0.664              1.758              1.711
 Vibration     8          0.676              1.722              1.571
 Vibration     9          0.687              1.689              1.463
 Vibration    10          0.711              1.621              1.272
 Vibration    11          0.721              1.592              1.204
 Vibration    12          0.741              1.537              1.086
 Vibration    13          0.750              1.512              1.037
 Vibration    14          0.775              1.447              0.925
 Vibration    15          0.817              1.342              0.770
 Vibration    16          0.820              1.334              0.760
 Vibration    17          0.849              1.265              0.675
 Vibration    18          0.864              1.231              0.637
 Vibration    19          0.928              1.092              0.501
 Vibration    20          0.956              1.037              0.454

 Normal termination of Gaussian 09 at Thu Jan 12 12:07:24 2017.
