 Gaussian 09, Revision D.01,
 Gaussian 09:  AM64L-G09RevD.01 24-Apr-2013

 -----------------------------------------
 # opt=(MaxCycle=1000) freq B3LYP/6-31G(d)
 -----------------------------------------

 -------------------------
 boat6_Alpha_B3LYP_6-31G_d
 -------------------------
 Symbolic Z-matrix:
 Charge =  0 Multiplicity = 1

 SCF Done:  E(RB3LYP) =  -687.114217424     A.U. after   14 cycles
 SCF Done:  E(RB3LYP) =  -687.120752264     A.U. after   13 cycles
 SCF Done:  E(RB3LYP) =  -687.127607811     A.U. after   12 cycles
 SCF Done:  E(RB3LYP) =  -687.130482025     A.U. after   12 cycles
 SCF Done:  E(RB3LYP) =  -687.132305084     A.U. after   12 cycles
 SCF Done:  E(RB3LYP) =  -687.133624338     A.U. after   12 cycles
 SCF Done:  E(RB3LYP) =  -687.134330857     A.U. after   12 cycles
 SCF Done:  E(RB3LYP) =  -687.134789864     A.U. after   12 cycles
 SCF Done:  E(RB3LYP) =  -687.135046926     A.U. after   12 cycles
 SCF Done:  E(RB3LYP) =  -687.135090202     A.U. after   10 cycles
 SCF Done:  E(RB3LYP) =  -687.135106852     A.U. after    9 cycles
 SCF Done:  E(RB3LYP) =  -687.135110839     A.U. after    8 cycles
 SCF Done:  E(RB3LYP) =  -687.135112097     A.U. after    8 cycles
 SCF Done:  E(RB3LYP) =  -687.135112457     A.U. after    7 cycles
 Optimization completed.
    -- Stationary point found.
 Normal termination of Gaussian 09 at Tue Jun 14 03:49:54 2016.

 --------------------------------------------------------------------
 #N Geom=AllCheck Guess=TCheck SCRF=Check GenChk RB3LYP/6-31G(d) Freq
 --------------------------------------------------------------------

 Structure from the checkpoint file:  "/home/iawad/scratch/MAIN/PRO_Halides/direct/optfreq/boat6_Alpha/boat6_Alpha_optfreq_B3LYP_6-31G_d.chk"
 -------------------------
 boat6_Alpha_B3LYP_6-31G_d
 -------------------------
 Charge =  0 Multiplicity = 1

                         Standard orientation:
 ---------------------------------------------------------------------
 Center     Atomic      Atomic             Coordinates (Angstroms)
 Number     Number       Type             X           Y           Z
 ---------------------------------------------------------------------
      1          8           0       -0.101277   -1.411714   -0.919015
      2          6           0       -0.593865    0.046965    1.061222
      3          6           0        1.248381    0.574932   -0.658308
      4          6           0        0.505077    1.046381    0.600606
      5          6           0        1.218126   -0.943525   -0.783977
      6          6           0       -1.132757   -0.809532   -0.095725
      7          1           0        1.228840    1.115302    1.423618
      8          1           0       -1.678231   -1.649290    0.355425
      9          1           0       -1.446157    0.615131    1.449972
     10          1           0        0.688095    0.952508   -1.526548
     11          6           0       -2.096503   -0.039934   -1.014753
     12          1           0       -2.307377   -0.658915   -1.898920
     13          1           0       -1.644561    0.895372   -1.354164
     14          8           0       -3.285238    0.337537   -0.330224
     15          1           0       -3.771744   -0.473368   -0.112999
     16          8           0        2.591495    1.021238   -0.707086
     17          1           0        2.557601    1.991116   -0.685194
     18          8           0       -0.000035    2.341571    0.262623
     19          1           0       -0.402224    2.724637    1.058359
     20          8           0       -0.132527   -0.754217    2.138039
     21          1           0        0.670643   -1.201797    1.806209
     22          1           0        1.733223   -1.257094   -1.698023
     23          8           0        1.874125   -1.513476    0.346879
     24          1           0        1.908795   -2.472832    0.198144
 ---------------------------------------------------------------------

 SCF Done:  E(RB3LYP) =  -687.135112457     A.U. after    1 cycles

 The electronic state is 1-A.
 Alpha  occ. eigenvalues --  -19.17527 -19.16482 -19.15836 -19.15229 -19.15046
 Alpha  occ. eigenvalues --  -19.12987 -10.29689 -10.24325 -10.24075 -10.23938
 Alpha  occ. eigenvalues --  -10.23540 -10.23209  -1.08115  -1.03590  -1.02596
 Alpha  occ. eigenvalues --   -1.01957  -1.01264  -1.00585  -0.77757  -0.77247
 Alpha  occ. eigenvalues --   -0.68720  -0.65556  -0.63094  -0.57699  -0.54985
 Alpha  occ. eigenvalues --   -0.54165  -0.51734  -0.50826  -0.49036  -0.47775
 Alpha  occ. eigenvalues --   -0.45619  -0.44629  -0.44159  -0.41878  -0.41327
 Alpha  occ. eigenvalues --   -0.40324  -0.39089  -0.36661  -0.35463  -0.34357
 Alpha  occ. eigenvalues --   -0.34102  -0.31214  -0.30711  -0.29598  -0.29130
 Alpha  occ. eigenvalues --   -0.27182  -0.26306  -0.24834
 Alpha virt. eigenvalues --    0.05653   0.06138   0.06835   0.08483   0.10923
 Alpha virt. eigenvalues --    0.11605   0.12018   0.14400   0.14750   0.15366
 Alpha virt. eigenvalues --    0.16967   0.17375   0.19427   0.19951   0.20646

 Mulliken charges:
               1
     1  O   -0.514907
     2  C    0.102391
     3  C    0.118130
     4  C    0.067569
     5  C    0.294756
     6  C    0.094686
     7  H    0.153199
     8  H    0.134082
     9  H    0.149711
    10  H    0.147645
    11  C   -0.063556
    12  H    0.137884
    13  H    0.170121
    14  O   -0.611765
    15  H    0.391938
    16  O   -0.629915
    17  H    0.403575
    18  O   -0.641761
    19  H    0.400346
    20  O   -0.662550
    21  H    0.413180
    22  H    0.152508
    23  O   -0.613983
    24  H    0.406717
 Sum of Mulliken charges =   0.00000

 Dipole moment (field-independent basis, Debye):
    X=             -0.3331    Y=             -0.8524    Z=             -0.6583  Tot=              1.1273
 Quadrupole moment (field-independent basis, Debye-Ang):
   XX=            -72.0434   YY=            -61.0273   ZZ=            -73.7590
   XY=              2.9551   XZ=             -0.8915   YZ=              4.0802

  Exact polarizability:  87.918  -1.012  79.183  -2.593   0.701  73.137
 Approx polarizability: 116.307  -3.477 111.948  -3.567  -0.415 107.027

                      1                      2                      3
                      A                      A                      A
 Frequencies --     65.6811                79.4494               127.5326
 Red. masses --      5.7953                 5.8920                 3.3902
 Frc consts  --      0.0147                 0.0219                 0.0325
 IR Inten    --      0.9511                 2.9245                 5.7416

                      4                      5                      6
                      A                      A                      A
 Frequencies --    176.1823               223.7767               229.4526
 Red. masses --      3.4776                 5.2732                 5.0538
 Frc consts  --      0.0636                 0.1556                 0.1568
 IR Inten    --      3.3004                 4.0798                 8.1249

                      7                      8                      9
                      A                      A                      A
 Frequencies --    243.7585               277.9692               292.4692
 Red. masses --      4.9923                 3.7815                 4.0018
 Frc consts  --      0.1748                 0.1722                 0.2017
 IR Inten    --      2.1423                 1.1069                 1.5183

                     10                     11                     12
                      A                      A                      A
 Frequencies --    341.2164               349.4797               363.4430
 Red. masses --      1.3570                 1.2126                 2.0669
 Frc consts  --      0.0931                 0.0873                 0.1609
 IR Inten    --    157.1227                93.1978                 3.8393

                     13                     14                     15
                      A                      A                      A
 Frequencies --    366.6000               380.3622               420.6054
 Red. masses --      1.6896                 1.3150                 2.7590
 Frc consts  --      0.1338                 0.1121                 0.2876
 IR Inten    --     84.0535                91.0716                54.5307

                     16                     17                     18
                      A                      A                      A
 Frequencies --    452.8788               492.5907               515.2743
 Red. masses --      3.8949                 5.6113                 5.6187
 Frc consts  --      0.4707                 0.8022                 0.8789
 IR Inten    --     18.9723                 5.2600                 0.6978

                     19                     20                     21
                      A                      A                      A
 Frequencies --    563.5278               591.5033               671.3044
 Red. masses --      4.3818                 3.5168                 1.2519
 Frc consts  --      0.8198                 0.7250                 0.3324
 IR Inten    --     26.1369                30.4553               130.2384

                     22                     23                     24
                      A                      A                      A
 Frequencies --    679.4996               801.4630               824.0744
 Red. masses --      4.9848                 4.6231                 2.5873
 Frc consts  --      1.3560                 1.7496                 1.0352
 IR Inten    --      2.3193                63.1252                 5.8516

                     25                     26                     27
                      A                      A                      A
 Frequencies --    904.2067               967.1874               992.4287
 Red. masses --      2.9844                 3.5672                 2.1770
 Frc consts  --      1.4376                 1.9661                 1.2633
 IR Inten    --     23.9609                10.6224                25.8807

                     28                     29                     30
                      A                      A                      A
 Frequencies --   1022.3660              1049.7070              1075.2663
 Red. masses --      3.7812                 2.9062                 3.9365
 Frc consts  --      2.3286                 1.8867                 2.6816
 IR Inten    --     91.5972                47.6643               119.3045

                     31                     32                     33
                      A                      A                      A
 Frequencies --   1089.9022              1097.6525              1103.4419
 Red. masses --      4.6850                 2.6086                 2.9772
 Frc consts  --      3.2790                 1.8518                 2.1358
 IR Inten    --     67.6835                38.0634               159.2747

                     34                     35                     36
                      A                      A                      A
 Frequencies --   1113.4315              1136.5509              1145.4599
 Red. masses --      2.1026                 4.8038                 3.9916
 Frc consts  --      1.5358                 3.6560                 3.0857
 IR Inten    --     45.2915               173.4449                19.7207

                     37                     38                     39
                      A                      A                      A
 Frequencies --   1201.9086              1212.1377              1258.3861
 Red. masses --      1.3299                 1.1453                 1.1896
 Frc consts  --      1.1320                 0.9914                 1.1099
 IR Inten    --     19.5732                29.7725                56.6078

                     40                     41                     42
                      A                      A                      A
 Frequencies --   1283.9212              1299.4714              1311.8269
 Red. masses --      1.1640                 1.6502                 1.1806
 Frc consts  --      1.1305                 1.6418                 1.1971
 IR Inten    --     45.1077                26.6194                14.3839

                     43                     44                     45
                      A                      A                      A
 Frequencies --   1348.7704              1360.6530              1378.1955
 Red. masses --      1.2011                 1.2252                 1.2941
 Frc consts  --      1.2874                 1.3365                 1.4482
 IR Inten    --      7.7686                 0.6456                26.5810

                     46                     47                     48
                      A                      A                      A
 Frequencies --   1388.1836              1403.8850              1418.6824
 Red. masses --      1.2424                 1.4760                 1.2811
 Frc consts  --      1.4107                 1.7140                 1.5192
 IR Inten    --      2.3348                 9.7470                17.4404

                     49                     50                     51
                      A                      A                      A
 Frequencies --   1432.4853              1441.7568              1458.2312
 Red. masses --      1.2936                 1.2749                 1.6001
 Frc consts  --      1.5640                 1.5613                 2.0047
 IR Inten    --      8.1103                14.1250                14.7179

                     52                     53                     54
                      A                      A                      A
 Frequencies --   1490.9780              1498.2819              1531.7407
 Red. masses --      1.5059                 1.3033                 1.0870
 Frc consts  --      1.9724                 1.7237                 1.5027
 IR Inten    --     29.7070                63.1440                 3.6070

                     55                     56                     57
                      A                      A                      A
 Frequencies --   3021.1216              3029.3210              3040.9007
 Red. masses --      1.0826                 1.0715                 1.0845
 Frc consts  --      5.8219                 5.7933                 5.9087
 IR Inten    --     15.3644                54.8245                49.4068

                     58                     59                     60
                      A                      A                      A
 Frequencies --   3046.6842              3084.4427              3089.4796
 Red. masses --      1.0856                 1.0858                 1.0882
 Frc consts  --      5.9373                 6.0863                 6.1195
 IR Inten    --     33.0507                32.1315                33.4954

                     61                     62                     63
                      A                      A                      A
 Frequencies --   3134.4073              3620.0734              3734.6652
 Red. masses --      1.0960                 1.0652                 1.0659
 Frc consts  --      6.3442                 8.2246                 8.7591
 IR Inten    --     19.7216               154.5212                28.3942

                     64                     65                     66
                      A                      A                      A
 Frequencies --   3735.1913              3739.3521              3740.7431
 Red. masses --      1.0661                 1.0661                 1.0661
 Frc consts  --      8.7638                 8.7830                 8.7899
 IR Inten    --     19.4268                16.9150                27.8553

 - Thermochemistry -
 -------------------
 Temperature   298.150 Kelvin.  Pressure   1.00000 Atm.
 Atom     1 has atomic number  8 and mass  15.99491

 Molecular mass:   180.06339 amu.
 Principal axes and moments of inertia in atomic units:
                           1         2         3
     Eigenvalues --  1461.218032335.822802638.52762
           X            0.99996   0.00806   0.00468
           Y           -0.00814   0.99981   0.01786
           Z           -0.00454  -0.01790   0.99983
 This molecule is an asymmetric top.
 Rotational symmetry number  1.
 Warning -- assumption of classical behavior for rotation
           may cause significant error
 Rotational temperatures (Kelvin)      0.05928     0.03708     0.03283
 Rotational constants (GHZ):           1.23509     0.77264     0.68400
 Zero-point vibrational energy     520157.7 (Joules/Mol)
                                  124.32067 (Kcal/Mol)
 Warning -- explicit consideration of  20 degrees of freedom as
           vibrations may cause significant error
 Vibrational temperatures:     94.50   114.31   183.49   253.49   321.96
          (Kelvin)            330.13   350.71   399.94   420.80   490.93
                              502.82   522.91   527.45   547.26   605.16
                              651.59   708.73   741.36   810.79   851.04
                              965.86   977.65  1153.13  1185.66  1300.95
                             1391.57  1427.88  1470.95  1510.29  1547.07
                             1568.12  1579.28  1587.60  1601.98  1635.24
                             1648.06  1729.28  1743.99  1810.53  1847.27
                             1869.65  1887.42  1940.58  1957.67  1982.91
                             1997.28  2019.87  2041.16  2061.02  2074.36
                             2098.07  2145.18  2155.69  2203.83  4346.71
                             4358.51  4375.17  4383.49  4437.82  4445.07
                             4509.71  5208.47  5373.34  5374.10  5380.09
                             5382.09

 Zero-point correction=                           0.198118 (Hartree/Particle)
 Thermal correction to Energy=                    0.210238
 Thermal correction to Enthalpy=                  0.211182
 Thermal correction to Gibbs Free Energy=         0.160756
 Sum of electronic and zero-point Energies=           -686.936995
 Sum of electronic and thermal Energies=              -686.924875
 Sum of electronic and thermal Enthalpies=            -686.923931
 Sum of electronic and thermal Free Energies=         -686.974357

                     E (Thermal)             CV                S
                      KCal/Mol        Cal/Mol-Kelvin    Cal/Mol-Kelvin
 Total                  131.926             46.747            106.130
 Electronic               0.000              0.000              0.000
 Translational            0.889              2.981             41.471
 Rotational               0.889              2.981             30.577
 Vibrational            130.149             40.785             34.082
 Vibration     1          0.597              1.971              4.279
 Vibration     2          0.600              1.963              3.904
 Vibration     3          0.611              1.926              2.983
 Vibration     4          0.628              1.872              2.368
 Vibration     5          0.649              1.805              1.928
 Vibration     6          0.652              1.796              1.883
 Vibration     7          0.659              1.773              1.775
 Vibration     8          0.679              1.714              1.546
 Vibration     9          0.688              1.688              1.460
 Vibration    10          0.721              1.593              1.206
 Vibration    11          0.727              1.576              1.169
 Vibration    12          0.737              1.548              1.107
 Vibration    13          0.740              1.541              1.094
 Vibration    14          0.750              1.512              1.038
 Vibration    15          0.783              1.425              0.890
 Vibration    16          0.811              1.355              0.787
 Vibration    17          0.848              1.266              0.677
 Vibration    18          0.870              1.216              0.621
 Vibration    19          0.919              1.110              0.517
 Vibration    20          0.949              1.050              0.465

 Optimization completed.
    -- Stationary point found.
 Normal termination of Gaussian 09 at Tue Jun 14 04:01:32 2016.
