 Gaussian 09, Revision D.01,
 Gaussian 09:  AM64L-G09RevD.01 24-Apr-2013

 -----------------------------------------
 # opt=(MaxCycle=1000) freq B3LYP/6-31G(d)
 -----------------------------------------

 ------------------------
 boat4_Beta_B3LYP_6-31G_d
 ------------------------
 Symbolic Z-matrix:
 Charge =  0 Multiplicity = 1

 SCF Done:  E(RB3LYP) =  -687.114673682     A.U. after   14 cycles
 SCF Done:  E(RB3LYP) =  -687.132204519     A.U. after   12 cycles
 SCF Done:  E(RB3LYP) =  -687.134925894     A.U. after   12 cycles
 SCF Done:  E(RB3LYP) =  -687.135617237     A.U. after   11 cycles
 SCF Done:  E(RB3LYP) =  -687.136170224     A.U. after   11 cycles
 SCF Done:  E(RB3LYP) =  -687.136472463     A.U. after   12 cycles
 SCF Done:  E(RB3LYP) =  -687.136636726     A.U. after   11 cycles
 SCF Done:  E(RB3LYP) =  -687.136821715     A.U. after   11 cycles
 SCF Done:  E(RB3LYP) =  -687.137132092     A.U. after   11 cycles
 SCF Done:  E(RB3LYP) =  -687.137251928     A.U. after   12 cycles
 SCF Done:  E(RB3LYP) =  -687.137426036     A.U. after   12 cycles
 SCF Done:  E(RB3LYP) =  -687.137466764     A.U. after   11 cycles
 SCF Done:  E(RB3LYP) =  -687.137483061     A.U. after   11 cycles
 SCF Done:  E(RB3LYP) =  -687.137486507     A.U. after   10 cycles
 SCF Done:  E(RB3LYP) =  -687.137486952     A.U. after    7 cycles
 SCF Done:  E(RB3LYP) =  -687.137487187     A.U. after    7 cycles
 Optimization completed.
    -- Stationary point found.
 Normal termination of Gaussian 09 at Tue Jun 14 03:22:14 2016.

 --------------------------------------------------------------------
 #N Geom=AllCheck Guess=TCheck SCRF=Check GenChk RB3LYP/6-31G(d) Freq
 --------------------------------------------------------------------

 Structure from the checkpoint file:  "/home/iawad/scratch/MAIN/PRO_Halides/direct/optfreq/boat4_Beta/boat4_Beta_optfreq_B3LYP_6-31G_d.chk"
 ------------------------
 boat4_Beta_B3LYP_6-31G_d
 ------------------------
 Charge =  0 Multiplicity = 1

                         Standard orientation:
 ---------------------------------------------------------------------
 Center     Atomic      Atomic             Coordinates (Angstroms)
 Number     Number       Type             X           Y           Z
 ---------------------------------------------------------------------
      1          8           0        0.087355   -1.417625   -0.821551
      2          6           0        0.476309    0.802421    0.226393
      3          6           0       -1.842895   -0.140529    0.109050
      4          6           0       -0.968758    1.084461   -0.165603
      5          6           0       -1.024979   -1.456241    0.050886
      6          6           0        1.028766   -0.347410   -0.628984
      7          1           0       -1.000433    1.276789   -1.250440
      8          1           0        1.226790    0.065062   -1.628598
      9          1           0        0.507504    0.530170    1.290857
     10          1           0       -1.654966   -2.247023   -0.375824
     11          6           0        2.331280   -0.916674   -0.054529
     12          1           0        2.153472   -1.286052    0.959610
     13          1           0        2.681653   -1.756645   -0.669519
     14          1           0       -2.245787   -0.046711    1.124840
     15          8           0       -0.639959   -1.769970    1.377397
     16          1           0       -0.155095   -2.610738    1.339748
     17          8           0        3.338703    0.097592    0.066844
     18          1           0        3.665167    0.295604   -0.825554
     19          8           0       -2.883163   -0.149468   -0.863006
     20          1           0       -3.625516   -0.658719   -0.504333
     21          8           0       -1.480288    2.191281    0.556251
     22          1           0       -0.792050    2.876301    0.498382
     23          8           0        1.216199    1.999500    0.002237
     24          1           0        2.130142    1.795303    0.272179
 ---------------------------------------------------------------------

 SCF Done:  E(RB3LYP) =  -687.137487187     A.U. after    1 cycles

 The electronic state is 1-A.
 Alpha  occ. eigenvalues --  -19.17541 -19.16337 -19.16334 -19.14734 -19.14716
 Alpha  occ. eigenvalues --  -19.13242 -10.28932 -10.24563 -10.24391 -10.23693
 Alpha  occ. eigenvalues --  -10.23395 -10.22917  -1.07567  -1.04447  -1.02949
 Alpha  occ. eigenvalues --   -1.01990  -1.00824  -0.99903  -0.78227  -0.76840
 Alpha  occ. eigenvalues --   -0.69303  -0.64673  -0.62822  -0.56264  -0.55289
 Alpha  occ. eigenvalues --   -0.53984  -0.52565  -0.51255  -0.49577  -0.47634
 Alpha  occ. eigenvalues --   -0.45922  -0.44360  -0.43290  -0.42361  -0.40836
 Alpha  occ. eigenvalues --   -0.39920  -0.38633  -0.36787  -0.35666  -0.34873
 Alpha  occ. eigenvalues --   -0.33264  -0.31909  -0.31149  -0.29800  -0.27622
 Alpha  occ. eigenvalues --   -0.27327  -0.26410  -0.24906
 Alpha virt. eigenvalues --    0.04333   0.06302   0.07495   0.08864   0.11131
 Alpha virt. eigenvalues --    0.12091   0.13202   0.14141   0.15060   0.15317
 Alpha virt. eigenvalues --    0.16628   0.17678   0.17746   0.19659   0.20971

 Mulliken charges:
               1
     1  O   -0.510555
     2  C    0.071012
     3  C    0.104937
     4  C    0.144833
     5  C    0.296893
     6  C    0.119652
     7  H    0.139931
     8  H    0.134071
     9  H    0.146349
    10  H    0.129912
    11  C   -0.070340
    12  H    0.157875
    13  H    0.144872
    14  H    0.161259
    15  O   -0.616460
    16  H    0.395297
    17  O   -0.619753
    18  H    0.402410
    19  O   -0.627197
    20  H    0.394767
    21  O   -0.648977
    22  H    0.408677
    23  O   -0.670686
    24  H    0.411221
 Sum of Mulliken charges =   0.00000

 Dipole moment (field-independent basis, Debye):
    X=              2.0000    Y=             -2.8102    Z=             -0.3521  Tot=              3.4672
 Quadrupole moment (field-independent basis, Debye-Ang):
   XX=            -63.8929   YY=            -66.8128   ZZ=            -73.3578
   XY=              5.9698   XZ=             -5.7673   YZ=             -2.3879

  Exact polarizability:  91.371   3.208  82.282  -1.675  -1.227  67.887
 Approx polarizability: 114.950   5.860 112.483  -2.324  -1.258 107.303

                      1                      2                      3
                      A                      A                      A
 Frequencies --     41.0072                91.1757               129.5081
 Red. masses --      5.5105                 6.6790                 6.9429
 Frc consts  --      0.0055                 0.0327                 0.0686
 IR Inten    --      1.5390                 0.1502                 1.5687

                      4                      5                      6
                      A                      A                      A
 Frequencies --    148.5407               211.6970               217.9539
 Red. masses --      3.0182                 3.8241                 1.6578
 Frc consts  --      0.0392                 0.1010                 0.0464
 IR Inten    --      4.1712                14.0651                60.8550

                      7                      8                      9
                      A                      A                      A
 Frequencies --    245.0184               265.6410               278.3412
 Red. masses --      2.2225                 4.5875                 3.8828
 Frc consts  --      0.0786                 0.1907                 0.1772
 IR Inten    --     60.3283                 1.9686                 4.8400

                     10                     11                     12
                      A                      A                      A
 Frequencies --    316.3014               339.0585               362.8290
 Red. masses --      1.1702                 4.6343                 3.9112
 Frc consts  --      0.0690                 0.3139                 0.3034
 IR Inten    --    172.4448                 2.3593                24.2092

                     13                     14                     15
                      A                      A                      A
 Frequencies --    399.7159               415.3192               437.1792
 Red. masses --      3.9058                 1.5392                 1.4136
 Frc consts  --      0.3677                 0.1564                 0.1592
 IR Inten    --     38.7304                88.1967               101.4422

                     16                     17                     18
                      A                      A                      A
 Frequencies --    443.7363               476.7322               513.0785
 Red. masses --      2.3587                 4.2543                 4.5802
 Frc consts  --      0.2736                 0.5697                 0.7104
 IR Inten    --     47.7536                42.9512                14.8725

                     19                     20                     21
                      A                      A                      A
 Frequencies --    544.9734               569.8853               604.0534
 Red. masses --      4.3040                 3.4134                 1.1647
 Frc consts  --      0.7531                 0.6532                 0.2504
 IR Inten    --     14.4318                13.3589                80.5236

                     22                     23                     24
                      A                      A                      A
 Frequencies --    611.2086               782.7817               907.5767
 Red. masses --      3.8371                 6.1485                 3.4657
 Frc consts  --      0.8446                 2.2197                 1.6819
 IR Inten    --     30.6599                31.4830                38.3459

                     25                     26                     27
                      A                      A                      A
 Frequencies --    911.5138               995.5896              1022.4998
 Red. masses --      1.7483                 3.6582                 4.0104
 Frc consts  --      0.8558                 2.1364                 2.4704
 IR Inten    --      0.4938                 2.6512                24.8910

                     28                     29                     30
                      A                      A                      A
 Frequencies --   1046.7643              1049.9256              1060.6931
 Red. masses --      4.0738                 3.8594                 5.2043
 Frc consts  --      2.6300                 2.5066                 3.4498
 IR Inten    --    132.1916               203.1487                36.2233

                     31                     32                     33
                      A                      A                      A
 Frequencies --   1076.6833              1090.3563              1123.8301
 Red. masses --      2.3058                 2.5337                 4.2795
 Frc consts  --      1.5749                 1.7748                 3.1845
 IR Inten    --     31.0287                98.1439                98.1378

                     34                     35                     36
                      A                      A                      A
 Frequencies --   1138.0198              1141.7783              1154.6823
 Red. masses --      2.7759                 2.8696                 3.5955
 Frc consts  --      2.1182                 2.2041                 2.8244
 IR Inten    --     39.4759                23.9481                46.5157

                     37                     38                     39
                      A                      A                      A
 Frequencies --   1186.8459              1226.0262              1247.2583
 Red. masses --      1.3623                 1.2451                 1.1470
 Frc consts  --      1.1306                 1.1027                 1.0513
 IR Inten    --      5.9729                25.4913                60.2773

                     40                     41                     42
                      A                      A                      A
 Frequencies --   1294.0834              1305.7260              1328.4941
 Red. masses --      1.1921                 1.1812                 1.3230
 Frc consts  --      1.1762                 1.1865                 1.3757
 IR Inten    --     21.4970                73.1187                 8.2977

                     43                     44                     45
                      A                      A                      A
 Frequencies --   1334.5982              1355.7033              1386.3424
 Red. masses --      1.2913                 1.1598                 1.2080
 Frc consts  --      1.3551                 1.2559                 1.3679
 IR Inten    --      9.6889                 4.2821                34.6484

                     46                     47                     48
                      A                      A                      A
 Frequencies --   1397.2897              1407.2175              1412.1830
 Red. masses --      1.2927                 1.3144                 1.2724
 Frc consts  --      1.4871                 1.5336                 1.4951
 IR Inten    --     26.5621                58.7416                15.1520

                     49                     50                     51
                      A                      A                      A
 Frequencies --   1418.6551              1429.0565              1440.1802
 Red. masses --      1.2534                 1.3965                 1.5652
 Frc consts  --      1.4863                 1.6803                 1.9127
 IR Inten    --     20.7393                17.1957                 6.6323

                     52                     53                     54
                      A                      A                      A
 Frequencies --   1474.3730              1489.7685              1535.9172
 Red. masses --      1.6085                 1.5749                 1.0873
 Frc consts  --      2.0601                 2.0594                 1.5112
 IR Inten    --      8.5240                17.4008                 1.0611

                     55                     56                     57
                      A                      A                      A
 Frequencies --   2999.9838              3027.4990              3042.0562
 Red. masses --      1.0825                 1.0830                 1.0859
 Frc consts  --      5.7401                 5.8488                 5.9206
 IR Inten    --     17.9772                 9.3018                53.8919

                     58                     59                     60
                      A                      A                      A
 Frequencies --   3044.8697              3055.1465              3067.2145
 Red. masses --      1.0660                 1.0873                 1.0856
 Frc consts  --      5.8230                 5.9794                 6.0173
 IR Inten    --     43.4613                64.6084                23.2261

                     61                     62                     63
                      A                      A                      A
 Frequencies --   3123.7106              3675.8644              3712.3025
 Red. masses --      1.1013                 1.0656                 1.0653
 Frc consts  --      6.3312                 8.4836                 8.6497
 IR Inten    --     29.6939               114.5696                34.1799

                     64                     65                     66
                      A                      A                      A
 Frequencies --   3729.6923              3737.2360              3755.1752
 Red. masses --      1.0657                 1.0663                 1.0666
 Frc consts  --      8.7344                 8.7744                 8.8615
 IR Inten    --     18.3222                23.7505                19.2402

 - Thermochemistry -
 -------------------
 Temperature   298.150 Kelvin.  Pressure   1.00000 Atm.
 Atom     1 has atomic number  8 and mass  15.99491

 Molecular mass:   180.06339 amu.
 Principal axes and moments of inertia in atomic units:
                           1         2         3
     Eigenvalues --  1389.466052329.000913177.46231
           X            0.99998   0.00299  -0.00583
           Y           -0.00303   0.99997  -0.00743
           Z            0.00581   0.00744   0.99996
 This molecule is an asymmetric top.
 Rotational symmetry number  1.
 Warning -- assumption of classical behavior for rotation
           may cause significant error
 Rotational temperatures (Kelvin)      0.06234     0.03719     0.02726
 Rotational constants (GHZ):           1.29887     0.77490     0.56798
 Zero-point vibrational energy     519215.9 (Joules/Mol)
                                  124.09557 (Kcal/Mol)
 Warning -- explicit consideration of  22 degrees of freedom as
           vibrations may cause significant error
 Vibrational temperatures:     59.00   131.18   186.33   213.72   304.58
          (Kelvin)            313.59   352.53   382.20   400.47   455.09
                              487.83   522.03   575.10   597.55   629.00
                              638.44   685.91   738.20   784.09   819.94
                              869.10   879.39  1126.25  1305.80  1311.46
                             1432.43  1471.15  1506.06  1510.61  1526.10
                             1549.11  1568.78  1616.94  1637.35  1642.76
                             1661.33  1707.60  1763.98  1794.52  1861.90
                             1878.65  1911.40  1920.19  1950.55  1994.64
                             2010.39  2024.67  2031.81  2041.13  2056.09
                             2072.10  2121.29  2143.44  2209.84  4316.30
                             4355.89  4376.83  4380.88  4395.67  4413.03
                             4494.32  5288.74  5341.17  5366.19  5377.04
                             5402.85

 Zero-point correction=                           0.197759 (Hartree/Particle)
 Thermal correction to Energy=                    0.210062
 Thermal correction to Enthalpy=                  0.211006
 Thermal correction to Gibbs Free Energy=         0.159834
 Sum of electronic and zero-point Energies=           -686.939728
 Sum of electronic and thermal Energies=              -686.927425
 Sum of electronic and thermal Enthalpies=            -686.926481
 Sum of electronic and thermal Free Energies=         -686.977654

                     E (Thermal)             CV                S
                      KCal/Mol        Cal/Mol-Kelvin    Cal/Mol-Kelvin
 Total                  131.816             46.985            107.702
 Electronic               0.000              0.000              0.000
 Translational            0.889              2.981             41.471
 Rotational               0.889              2.981             30.709
 Vibrational            130.039             41.023             35.522
 Vibration     1          0.594              1.981              5.210
 Vibration     2          0.602              1.955              3.635
 Vibration     3          0.612              1.924              2.953
 Vibration     4          0.618              1.904              2.691
 Vibration     5          0.643              1.823              2.029
 Vibration     6          0.646              1.814              1.976
 Vibration     7          0.660              1.771              1.766
 Vibration     8          0.671              1.736              1.624
 Vibration     9          0.679              1.714              1.544
 Vibration    10          0.703              1.642              1.329
 Vibration    11          0.719              1.597              1.217
 Vibration    12          0.737              1.549              1.110
 Vibration    13          0.766              1.471              0.964
 Vibration    14          0.779              1.437              0.908
 Vibration    15          0.797              1.389              0.836
 Vibration    16          0.803              1.375              0.815
 Vibration    17          0.833              1.302              0.719
 Vibration    18          0.868              1.221              0.626
 Vibration    19          0.900              1.151              0.555
 Vibration    20          0.926              1.096              0.504
 Vibration    21          0.963              1.023              0.443
 Vibration    22          0.970              1.008              0.431

 Normal termination of Gaussian 09 at Tue Jun 14 03:35:51 2016.
