 Gaussian 09, Revision E.01,
 Gaussian 09:  ES64L-G09RevE.01 30-Nov-2015

 ---------------------------------------
 # opt=maxcycle=1000 freq b3lyp/6-31g(d)
 ---------------------------------------

 -------------------------
 boat6_Alpha_B3LYP_6-31G_d
 -------------------------
 Symbolic Z-matrix:
 Charge =  0 Multiplicity = 1

 SCF Done:  E(RB3LYP) =  -687.069849946     A.U. after   14 cycles
 SCF Done:  E(RB3LYP) =  -687.098580854     A.U. after   12 cycles
 SCF Done:  E(RB3LYP) =  -687.107015987     A.U. after   11 cycles
 SCF Done:  E(RB3LYP) =  -687.108412648     A.U. after   11 cycles
 SCF Done:  E(RB3LYP) =  -687.110270203     A.U. after   11 cycles
 SCF Done:  E(RB3LYP) =  -687.083841103     A.U. after   14 cycles
 SCF Done:  E(RB3LYP) =  -687.113005011     A.U. after   12 cycles
 SCF Done:  E(RB3LYP) =  -687.115509334     A.U. after   11 cycles
 SCF Done:  E(RB3LYP) =  -687.120903787     A.U. after   13 cycles
 SCF Done:  E(RB3LYP) =  -687.122618222     A.U. after   12 cycles
 SCF Done:  E(RB3LYP) =  -687.132853666     A.U. after   11 cycles
 SCF Done:  E(RB3LYP) =  -687.133002211     A.U. after   10 cycles
 SCF Done:  E(RB3LYP) =  -687.133027755     A.U. after   10 cycles
 SCF Done:  E(RB3LYP) =  -687.133071609     A.U. after   11 cycles
 SCF Done:  E(RB3LYP) =  -687.133087397     A.U. after   10 cycles
 SCF Done:  E(RB3LYP) =  -687.133096442     A.U. after   10 cycles
 SCF Done:  E(RB3LYP) =  -687.133100705     A.U. after    8 cycles
 SCF Done:  E(RB3LYP) =  -687.133101782     A.U. after    7 cycles
 SCF Done:  E(RB3LYP) =  -687.133102225     A.U. after    7 cycles
 Optimization completed.
    -- Stationary point found.
 Normal termination of Gaussian 09 at Thu Jan 12 12:53:37 2017.

 --------------------------------------------------------------------
 #N Geom=AllCheck Guess=TCheck SCRF=Check GenChk RB3LYP/6-31G(d) Freq
 --------------------------------------------------------------------

 Structure from the checkpoint file:  "/scratch/10454694.yak.local/Gau-22583.chk"
 -------------------------
 boat6_Alpha_B3LYP_6-31G_d
 -------------------------
 Charge =  0 Multiplicity = 1

                         Standard orientation:
 ---------------------------------------------------------------------
 Center     Atomic      Atomic             Coordinates (Angstroms)
 Number     Number       Type             X           Y           Z
 ---------------------------------------------------------------------
      1          6           0       -0.985065    0.811005    0.433660
      2          6           0        1.479565    0.376489    0.141691
      3          6           0        0.340222    1.334657   -0.188260
      4          6           0        1.126783   -1.048246   -0.271616
      5          1           0        0.967337   -1.073268   -1.360719
      6          1           0        1.639480    0.395158    1.229290
      7          1           0       -1.296434    1.508101    1.216994
      8          1           0        0.255400    1.387670   -1.285195
      9          6           0       -0.179120   -1.478295    0.428580
     10          1           0        0.063550   -2.214513    1.203913
     11          8           0       -0.787299   -0.416805    1.143195
     12          6           0       -2.091352    0.722240   -0.625577
     13          1           0       -2.334769    1.752295   -0.939721
     14          1           0       -1.727330    0.175786   -1.504770
     15          8           0       -3.221470    0.072303   -0.056997
     16          1           0       -3.919492    0.057142   -0.729493
     17          8           0       -1.055003   -2.014461   -0.539379
     18          1           0       -1.940204   -1.994712   -0.133445
     19          8           0        2.157430   -1.947837    0.103634
     20          1           0        2.983866   -1.551910   -0.220870
     21          8           0        2.673627    0.733598   -0.544279
     22          1           0        2.863217    1.652531   -0.292927
     23          8           0        0.743640    2.610912    0.320812
     24          1           0        0.211777    3.296946   -0.109816
 ---------------------------------------------------------------------

 SCF Done:  E(RB3LYP) =  -687.133102225     A.U. after    1 cycles

 The electronic state is 1-A.
 Alpha  occ. eigenvalues --  -19.16688 -19.16071 -19.15558 -19.15259 -19.14417
 Alpha  occ. eigenvalues --  -19.13852 -10.27858 -10.24891 -10.24507 -10.24308
 Alpha  occ. eigenvalues --  -10.23633 -10.23224  -1.06953  -1.04431  -1.03055
 Alpha  occ. eigenvalues --   -1.02558  -1.00557  -0.99526  -0.78857  -0.76618
 Alpha  occ. eigenvalues --   -0.69548  -0.64088  -0.62622  -0.56438  -0.54998
 Alpha  occ. eigenvalues --   -0.53693  -0.52622  -0.51482  -0.49338  -0.47576
 Alpha  occ. eigenvalues --   -0.45401  -0.44756  -0.43262  -0.42710  -0.41148
 Alpha  occ. eigenvalues --   -0.39616  -0.38725  -0.36743  -0.35494  -0.35123
 Alpha  occ. eigenvalues --   -0.33836  -0.31161  -0.29520  -0.28764  -0.28559
 Alpha  occ. eigenvalues --   -0.27439  -0.26234  -0.25580
 Alpha virt. eigenvalues --    0.04487   0.05796   0.07852   0.09822   0.10504
 Alpha virt. eigenvalues --    0.11304   0.12347   0.13850   0.14908   0.16194
 Alpha virt. eigenvalues --    0.16951   0.17298   0.17941   0.19636   0.20016

 Mulliken charges:
               1
     1  C    0.131117
     2  C    0.111119
     3  C    0.064491
     4  C    0.106785
     5  H    0.139693
     6  H    0.148423
     7  H    0.157847
     8  H    0.128521
     9  C    0.329659
    10  H    0.156798
    11  O   -0.493914
    12  C   -0.069788
    13  H    0.114018
    14  H    0.151076
    15  O   -0.617746
    16  H    0.398868
    17  O   -0.632918
    18  H    0.405429
    19  O   -0.645646
    20  H    0.408591
    21  O   -0.656352
    22  H    0.408284
    23  O   -0.642363
    24  H    0.398010
 Sum of Mulliken charges =   0.00000

 Dipole moment (field-independent basis, Debye):
    X=             -1.9959    Y=              3.7441    Z=             -2.1291  Tot=              4.7471
 Quadrupole moment (field-independent basis, Debye-Ang):
   XX=            -62.7419   YY=            -68.0135   ZZ=            -72.3024
   XY=              0.9116   XZ=              5.6463   YZ=             -4.0649

  Exact polarizability:  90.448  -0.870  85.385   1.939  -2.075  65.496
 Approx polarizability: 114.881  -0.592 115.874   0.729  -1.929 104.131

                      1                      2                      3
                      A                      A                      A
 Frequencies --     35.3693                62.7971               106.8042
 Red. masses --      5.1859                 4.7473                 6.2554
 Frc consts  --      0.0038                 0.0110                 0.0420
 IR Inten    --      1.6337                 9.9968                 2.6054

                      4                      5                      6
                      A                      A                      A
 Frequencies --    188.3069               230.0841               244.6159
 Red. masses --      3.7990                 3.8279                 3.1520
 Frc consts  --      0.0794                 0.1194                 0.1111
 IR Inten    --      4.0727                 6.2742                25.8460

                      7                      8                      9
                      A                      A                      A
 Frequencies --    247.7538               279.2791               286.6741
 Red. masses --      3.7684                 1.3995                 3.7295
 Frc consts  --      0.1363                 0.0643                 0.1806
 IR Inten    --      9.9917                74.7622                 8.9414

                     10                     11                     12
                      A                      A                      A
 Frequencies --    294.1990               308.4407               348.4790
 Red. masses --      2.5682                 1.4051                 2.4644
 Frc consts  --      0.1310                 0.0788                 0.1763
 IR Inten    --     32.9000               134.4058                 6.6734

                     13                     14                     15
                      A                      A                      A
 Frequencies --    390.2941               412.8229               427.3439
 Red. masses --      3.2877                 1.6238                 1.2410
 Frc consts  --      0.2951                 0.1630                 0.1335
 IR Inten    --     32.5065               124.1336                19.9271

                     16                     17                     18
                      A                      A                      A
 Frequencies --    435.7177               473.6388               494.8022
 Red. masses --      3.0185                 1.6674                 4.3172
 Frc consts  --      0.3376                 0.2204                 0.6227
 IR Inten    --     63.7884               148.0249                13.1955

                     19                     20                     21
                      A                      A                      A
 Frequencies --    523.3577               547.1925               601.6756
 Red. masses --      3.7104                 4.0560                 3.0675
 Frc consts  --      0.5988                 0.7155                 0.6543
 IR Inten    --      5.2416                 7.0141                43.1100

                     22                     23                     24
                      A                      A                      A
 Frequencies --    641.6992               752.2820               841.7033
 Red. masses --      4.4604                 4.8298                 2.4253
 Frc consts  --      1.0822                 1.6104                 1.0124
 IR Inten    --     51.2529                30.8439                 1.5379

                     25                     26                     27
                      A                      A                      A
 Frequencies --    971.8656               992.2090              1031.5760
 Red. masses --      3.5987                 4.1966                 2.7372
 Frc consts  --      2.0027                 2.4342                 1.7162
 IR Inten    --      8.1444                54.2292                17.1827

                     28                     29                     30
                      A                      A                      A
 Frequencies --   1036.2086              1051.9990              1075.0630
 Red. masses --      4.1143                 4.2090                 2.7179
 Frc consts  --      2.6028                 2.7445                 1.8508
 IR Inten    --    133.4321               201.9249                52.5648

                     31                     32                     33
                      A                      A                      A
 Frequencies --   1077.7399              1104.8245              1110.3191
 Red. masses --      3.0064                 3.0745                 3.9746
 Frc consts  --      2.0574                 2.2111                 2.8869
 IR Inten    --     28.3053               145.2449                15.4973

                     34                     35                     36
                      A                      A                      A
 Frequencies --   1137.6689              1142.9071              1149.6017
 Red. masses --      3.6072                 3.7268                 3.5650
 Frc consts  --      2.7507                 2.8682                 2.7759
 IR Inten    --     62.3185                33.0706                33.3960

                     37                     38                     39
                      A                      A                      A
 Frequencies --   1212.6400              1245.6633              1253.1307
 Red. masses --      1.2887                 1.1669                 1.1734
 Frc consts  --      1.1165                 1.0668                 1.0857
 IR Inten    --      3.8699                40.7003                29.1290

                     40                     41                     42
                      A                      A                      A
 Frequencies --   1271.1748              1276.9101              1298.2888
 Red. masses --      1.1721                 1.2041                 1.1476
 Frc consts  --      1.1159                 1.1567                 1.1397
 IR Inten    --     27.3698                 8.0752                96.4189

                     43                     44                     45
                      A                      A                      A
 Frequencies --   1321.3922              1350.1812              1369.6073
 Red. masses --      1.1910                 1.4307                 1.2482
 Frc consts  --      1.2252                 1.5367                 1.3795
 IR Inten    --      8.0636                33.8772                64.9937

                     46                     47                     48
                      A                      A                      A
 Frequencies --   1383.2921              1397.5370              1400.7226
 Red. masses --      1.2259                 1.2534                 1.2493
 Frc consts  --      1.3821                 1.4423                 1.4442
 IR Inten    --     13.2812                 0.1783                 6.7106

                     49                     50                     51
                      A                      A                      A
 Frequencies --   1432.6771              1449.0601              1456.8995
 Red. masses --      1.2741                 1.5861                 1.4918
 Frc consts  --      1.5408                 1.9622                 1.8656
 IR Inten    --     24.2212                 8.3358                12.1174

                     52                     53                     54
                      A                      A                      A
 Frequencies --   1480.2186              1485.6277              1535.6294
 Red. masses --      1.4369                 1.6376                 1.0833
 Frc consts  --      1.8549                 2.1295                 1.5051
 IR Inten    --      2.0478                28.0196                 4.7743

                     55                     56                     57
                      A                      A                      A
 Frequencies --   2977.8446              3000.9001              3011.9803
 Red. masses --      1.0692                 1.0839                 1.0826
 Frc consts  --      5.5863                 5.7509                 5.7868
 IR Inten    --     63.1657                16.1363                24.4048

                     58                     59                     60
                      A                      A                      A
 Frequencies --   3040.1831              3062.8658              3073.6426
 Red. masses --      1.0851                 1.0913                 1.0867
 Frc consts  --      5.9093                 6.0318                 6.0490
 IR Inten    --     48.0545                23.0846                45.1526

                     61                     62                     63
                      A                      A                      A
 Frequencies --   3102.3342              3699.4607              3723.5626
 Red. masses --      1.0881                 1.0651                 1.0655
 Frc consts  --      6.1700                 8.5885                 8.7038
 IR Inten    --     30.2474                46.9188                33.9238

                     64                     65                     66
                      A                      A                      A
 Frequencies --   3734.6051              3752.2080              3757.2790
 Red. masses --      1.0656                 1.0664                 1.0668
 Frc consts  --      8.7562                 8.8462                 8.8729
 IR Inten    --     36.7057                20.8041                20.0611

 - Thermochemistry -
 -------------------
 Temperature   298.150 Kelvin.  Pressure   1.00000 Atm.
 Atom     1 has atomic number  6 and mass  12.00000

 Molecular mass:   180.06339 amu.
 Principal axes and moments of inertia in atomic units:
                           1         2         3
     Eigenvalues --  1467.969412156.555503234.38870
           X            0.99989  -0.01061   0.01065
           Y            0.01071   0.99990  -0.00963
           Z           -0.01055   0.00975   0.99990
 This molecule is an asymmetric top.
 Rotational symmetry number  1.
 Warning -- assumption of classical behavior for rotation
           may cause significant error
 Rotational temperatures (Kelvin)      0.05900     0.04016     0.02678
 Rotational constants (GHZ):           1.22941     0.83686     0.55799
 Zero-point vibrational energy     518071.8 (Joules/Mol)
                                  123.82212 (Kcal/Mol)
 Warning -- explicit consideration of  21 degrees of freedom as
           vibrations may cause significant error
 Vibrational temperatures:     50.89    90.35   153.67   270.93   331.04
          (Kelvin)            351.95   356.46   401.82   412.46   423.29
                              443.78   501.38   561.55   593.96   614.85
                              626.90   681.46   711.91   752.99   787.29
                              865.68   923.26  1082.36  1211.02  1398.30
                             1427.57  1484.21  1490.87  1513.59  1546.77
                             1550.63  1589.59  1597.50  1636.85  1644.39
                             1654.02  1744.72  1792.23  1802.97  1828.93
                             1837.19  1867.95  1901.19  1942.61  1970.56
                             1990.25  2010.74  2015.32  2061.30  2084.87
                             2096.15  2129.70  2137.48  2209.43  4284.45
                             4317.62  4333.56  4374.14  4406.78  4422.28
                             4463.56  5322.69  5357.37  5373.26  5398.58
                             5405.88

 Zero-point correction=                           0.197323 (Hartree/Particle)
 Thermal correction to Energy=                    0.209722
 Thermal correction to Enthalpy=                  0.210666
 Thermal correction to Gibbs Free Energy=         0.159010
 Sum of electronic and zero-point Energies=           -686.935779
 Sum of electronic and thermal Energies=              -686.923380
 Sum of electronic and thermal Enthalpies=            -686.922436
 Sum of electronic and thermal Free Energies=         -686.974092

                     E (Thermal)             CV                S
                      KCal/Mol        Cal/Mol-Kelvin    Cal/Mol-Kelvin
 Total                  131.603             47.226            108.719
 Electronic               0.000              0.000              0.000
 Translational            0.889              2.981             41.471
 Rotational               0.889              2.981             30.705
 Vibrational            129.825             41.264             36.543
 Vibration     1          0.594              1.982              5.503
 Vibration     2          0.597              1.972              4.367
 Vibration     3          0.606              1.944              3.326
 Vibration     4          0.633              1.856              2.244
 Vibration     5          0.652              1.795              1.878
 Vibration     6          0.660              1.772              1.769
 Vibration     7          0.661              1.766              1.747
 Vibration     8          0.680              1.712              1.538
 Vibration     9          0.684              1.698              1.494
 Vibration    10          0.689              1.685              1.450
 Vibration    11          0.698              1.658              1.371
 Vibration    12          0.726              1.578              1.173
 Vibration    13          0.758              1.491              0.999
 Vibration    14          0.777              1.442              0.917
 Vibration    15          0.789              1.411              0.867
 Vibration    16          0.796              1.392              0.840
 Vibration    17          0.830              1.309              0.727
 Vibration    18          0.850              1.262              0.671
 Vibration    19          0.878              1.198              0.602
 Vibration    20          0.902              1.146              0.550
 Vibration    21          0.960              1.028              0.447

 Normal termination of Gaussian 09 at Thu Jan 12 12:58:41 2017.
