 Gaussian 09, Revision E.01,
 Gaussian 09:  ES64L-G09RevE.01 30-Nov-2015

 -----------------------------------------
 # opt=(MaxCycle=1000) freq B3LYP/6-31G(d)
 -----------------------------------------

 -------------------------
 boat2_Alpha_B3LYP_6-31G_d
 -------------------------
 Symbolic Z-matrix:
 Charge =  0 Multiplicity = 1

 SCF Done:  E(RB3LYP) =  -687.113558464     A.U. after   14 cycles
 SCF Done:  E(RB3LYP) =  -687.125648068     A.U. after   12 cycles
 SCF Done:  E(RB3LYP) =  -687.127691482     A.U. after   11 cycles
 SCF Done:  E(RB3LYP) =  -687.128217535     A.U. after   11 cycles
 SCF Done:  E(RB3LYP) =  -687.128373235     A.U. after   11 cycles
 SCF Done:  E(RB3LYP) =  -687.128539050     A.U. after   10 cycles
 SCF Done:  E(RB3LYP) =  -687.128939304     A.U. after   12 cycles
 SCF Done:  E(RB3LYP) =  -687.022699321     A.U. after   15 cycles
 SCF Done:  E(RB3LYP) =  -687.129368689     A.U. after   11 cycles
 SCF Done:  E(RB3LYP) =  -687.129842405     A.U. after   12 cycles
 SCF Done:  E(RB3LYP) =  -687.132120235     A.U. after   11 cycles
 SCF Done:  E(RB3LYP) =  -687.132639025     A.U. after   11 cycles
 SCF Done:  E(RB3LYP) =  -687.132797276     A.U. after   12 cycles
 SCF Done:  E(RB3LYP) =  -687.132882836     A.U. after   12 cycles
 SCF Done:  E(RB3LYP) =  -687.132937724     A.U. after   11 cycles
 SCF Done:  E(RB3LYP) =  -687.132958905     A.U. after   10 cycles
 SCF Done:  E(RB3LYP) =  -687.132962948     A.U. after    8 cycles
 SCF Done:  E(RB3LYP) =  -687.132964103     A.U. after    8 cycles
 SCF Done:  E(RB3LYP) =  -687.132964410     A.U. after    7 cycles
 Optimization completed.
    -- Stationary point found.
 Normal termination of Gaussian 09 at Thu Jan 12 12:02:50 2017.

 --------------------------------------------------------------------
 #N Geom=AllCheck Guess=TCheck SCRF=Check GenChk RB3LYP/6-31G(d) Freq
 --------------------------------------------------------------------

 Structure from the checkpoint file:  "/scratch/10454685.yak.local/Gau-18837.chk"
 -------------------------
 boat2_Alpha_B3LYP_6-31G_d
 -------------------------
 Charge =  0 Multiplicity = 1

                         Standard orientation:
 ---------------------------------------------------------------------
 Center     Atomic      Atomic             Coordinates (Angstroms)
 Number     Number       Type             X           Y           Z
 ---------------------------------------------------------------------
      1          1           0        0.692712    0.866222    0.985470
      2          6           0        0.825510    0.565142   -0.062693
      3          6           0       -0.762723   -1.412084   -0.330747
      4          6           0       -1.486218    0.994434   -0.378167
      5          6           0       -1.688694   -0.376804    0.326909
      6          8           0       -0.161329    1.183901   -0.872933
      7          6           0        0.701604   -0.977216   -0.137710
      8          1           0       -0.885002   -2.377157    0.181598
      9          1           0       -2.741710   -0.656008    0.181921
     10          1           0        1.278595   -1.366462   -0.987521
     11          6           0        2.191872    1.044466   -0.527550
     12          1           0        2.265891    2.135525   -0.423314
     13          1           0        2.331587    0.784233   -1.586454
     14          8           0        3.145610    0.374321    0.306293
     15          1           0        4.032434    0.519190   -0.053701
     16          8           0       -1.463834   -0.344662    1.725487
     17          1           0       -0.582943   -0.721857    1.905843
     18          8           0       -0.998262   -1.539317   -1.729422
     19          1           0       -1.886359   -1.912345   -1.843069
     20          8           0        1.153833   -1.553273    1.091618
     21          1           0        2.047924   -1.189391    1.231643
     22          1           0       -2.101116    1.021188   -1.286858
     23          8           0       -1.849704    2.006918    0.518202
     24          1           0       -1.750629    2.846135    0.040233
 ---------------------------------------------------------------------

 SCF Done:  E(RB3LYP) =  -687.132964410     A.U. after    1 cycles

 The electronic state is 1-A.
 Alpha  occ. eigenvalues --  -19.17237 -19.15349 -19.15237 -19.15217 -19.14583
 Alpha  occ. eigenvalues --  -19.13153 -10.27697 -10.24474 -10.23967 -10.23731
 Alpha  occ. eigenvalues --  -10.23680 -10.23397  -1.06745  -1.04166  -1.03156
 Alpha  occ. eigenvalues --   -1.01923  -1.00613  -0.99737  -0.77621  -0.76128
 Alpha  occ. eigenvalues --   -0.69725  -0.63276  -0.62587  -0.56464  -0.54792
 Alpha  occ. eigenvalues --   -0.54632  -0.52613  -0.50577  -0.49252  -0.48212
 Alpha  occ. eigenvalues --   -0.44984  -0.44243  -0.42516  -0.42060  -0.40674
 Alpha  occ. eigenvalues --   -0.38881  -0.37804  -0.37619  -0.36197  -0.34859
 Alpha  occ. eigenvalues --   -0.34138  -0.30472  -0.29175  -0.28878  -0.28053
 Alpha  occ. eigenvalues --   -0.27324  -0.26162  -0.24742
 Alpha virt. eigenvalues --    0.04318   0.06006   0.07704   0.10481   0.11225
 Alpha virt. eigenvalues --    0.12378   0.13659   0.14179   0.15517   0.16445
 Alpha virt. eigenvalues --    0.17445   0.17936   0.18240   0.20348   0.21291

 Mulliken charges:
               1
     1  H    0.151866
     2  C    0.113326
     3  C    0.089418
     4  C    0.351514
     5  C    0.064299
     6  O   -0.512507
     7  C    0.092180
     8  H    0.150576
     9  H    0.126185
    10  H    0.146079
    11  C   -0.061675
    12  H    0.144443
    13  H    0.144705
    14  O   -0.640458
    15  H    0.409018
    16  O   -0.638340
    17  H    0.417433
    18  O   -0.627388
    19  H    0.395572
    20  O   -0.657077
    21  H    0.421926
    22  H    0.122025
    23  O   -0.594768
    24  H    0.391646
 Sum of Mulliken charges =  -0.00000

 Dipole moment (field-independent basis, Debye):
    X=              2.2545    Y=              0.5949    Z=             -2.5274  Tot=              3.4386
 Quadrupole moment (field-independent basis, Debye-Ang):
   XX=            -55.0527   YY=            -65.9242   ZZ=            -77.0521
   XY=              5.5864   XZ=              5.3715   YZ=             -1.1167

  Exact polarizability:  91.653   0.601  77.227   2.300  -1.261  72.669
 Approx polarizability: 116.994  -1.352 103.564   2.618  -3.135 113.844

                      1                      2                      3
                      A                      A                      A
 Frequencies --     75.0611                86.0575               136.5200
 Red. masses --      6.3350                 6.5397                 4.4004
 Frc consts  --      0.0210                 0.0285                 0.0483
 IR Inten    --      0.8663                 0.4208                11.8100

                      4                      5                      6
                      A                      A                      A
 Frequencies --    165.5997               191.1515               215.8966
 Red. masses --      4.5872                 3.0853                 4.8219
 Frc consts  --      0.0741                 0.0664                 0.1324
 IR Inten    --      6.5801                 8.7433                 4.8776

                      7                      8                      9
                      A                      A                      A
 Frequencies --    239.2402               256.1943               283.7147
 Red. masses --      1.3234                 4.8370                 1.1376
 Frc consts  --      0.0446                 0.1871                 0.0540
 IR Inten    --     95.8785                15.8664                89.7175

                     10                     11                     12
                      A                      A                      A
 Frequencies --    288.1819               358.8177               371.2672
 Red. masses --      5.7829                 1.4639                 3.3957
 Frc consts  --      0.2830                 0.1110                 0.2758
 IR Inten    --     14.5651                64.5688                44.5244

                     13                     14                     15
                      A                      A                      A
 Frequencies --    394.5453               403.0444               444.2915
 Red. masses --      2.7572                 5.0673                 2.2740
 Frc consts  --      0.2529                 0.4850                 0.2645
 IR Inten    --     42.5810                 1.4797                10.4143

                     16                     17                     18
                      A                      A                      A
 Frequencies --    465.1063               479.2676               529.8610
 Red. masses --      3.8550                 1.5524                 3.7993
 Frc consts  --      0.4913                 0.2101                 0.6285
 IR Inten    --     29.5284                45.1682                10.1445

                     19                     20                     21
                      A                      A                      A
 Frequencies --    567.4410               572.0373               603.9650
 Red. masses --      5.6796                 5.3179                 1.1230
 Frc consts  --      1.0775                 1.0253                 0.2414
 IR Inten    --     37.6451                 2.0755               147.5120

                     22                     23                     24
                      A                      A                      A
 Frequencies --    705.0938               805.9672               848.0857
 Red. masses --      6.3448                 3.5122                 4.3440
 Frc consts  --      1.8585                 1.3442                 1.8408
 IR Inten    --     21.8510                10.3033                13.9835

                     25                     26                     27
                      A                      A                      A
 Frequencies --    886.3124               954.3274              1030.8486
 Red. masses --      2.3742                 2.3532                 2.5830
 Frc consts  --      1.0989                 1.2627                 1.6172
 IR Inten    --      8.7667                13.9008                32.2723

                     28                     29                     30
                      A                      A                      A
 Frequencies --   1059.7353              1068.8933              1078.0974
 Red. masses --      4.9610                 2.2585                 3.5471
 Frc consts  --      3.2826                 1.5203                 2.4291
 IR Inten    --     31.7923                53.8553                31.3869

                     31                     32                     33
                      A                      A                      A
 Frequencies --   1087.9922              1099.3998              1120.9223
 Red. masses --      5.5203                 5.3439                 2.4760
 Frc consts  --      3.8500                 3.8056                 1.8330
 IR Inten    --    202.9554               225.9590                 6.8865

                     34                     35                     36
                      A                      A                      A
 Frequencies --   1130.6467              1135.0750              1148.7834
 Red. masses --      2.7146                 2.5074                 5.5295
 Frc consts  --      2.0446                 1.9034                 4.2995
 IR Inten    --     43.7860                 6.6274               104.8453

                     37                     38                     39
                      A                      A                      A
 Frequencies --   1224.1332              1244.0259              1251.3970
 Red. masses --      1.1989                 1.0843                 1.1603
 Frc consts  --      1.0585                 0.9887                 1.0705
 IR Inten    --      7.5682                72.7793                14.6796

                     40                     41                     42
                      A                      A                      A
 Frequencies --   1263.8584              1275.2015              1304.2309
 Red. masses --      1.2468                 1.2598                 1.2839
 Frc consts  --      1.1734                 1.2070                 1.2867
 IR Inten    --     50.8189                18.0502                60.6965

                     43                     44                     45
                      A                      A                      A
 Frequencies --   1338.8931              1363.3996              1378.2247
 Red. masses --      1.2378                 1.3642                 1.2324
 Frc consts  --      1.3073                 1.4941                 1.3793
 IR Inten    --     10.7454                 5.0325                12.1686

                     46                     47                     48
                      A                      A                      A
 Frequencies --   1402.5596              1407.1674              1423.0872
 Red. masses --      1.2261                 1.3057                 1.2346
 Frc consts  --      1.4211                 1.5233                 1.4732
 IR Inten    --     28.9199                28.0718                11.3869

                     49                     50                     51
                      A                      A                      A
 Frequencies --   1438.7918              1458.7469              1466.7350
 Red. masses --      1.4498                 1.5394                 1.5829
 Frc consts  --      1.7683                 1.9301                 2.0063
 IR Inten    --      8.3932                 0.1679                11.0137

                     52                     53                     54
                      A                      A                      A
 Frequencies --   1478.0399              1489.2942              1552.3139
 Red. masses --      1.3597                 1.4671                 1.0868
 Frc consts  --      1.7501                 1.9172                 1.5430
 IR Inten    --     68.7197                23.3326                 3.3294

                     55                     56                     57
                      A                      A                      A
 Frequencies --   3023.8297              3026.8712              3034.9554
 Red. masses --      1.0565                 1.0842                 1.0849
 Frc consts  --      5.6918                 5.8528                 5.8878
 IR Inten    --     35.5237                18.3374                39.3003

                     58                     59                     60
                      A                      A                      A
 Frequencies --   3038.3957              3045.9861              3054.6654
 Red. masses --      1.0850                 1.0868                 1.0867
 Frc consts  --      5.9018                 5.9412                 5.9745
 IR Inten    --     25.4915                22.7980                95.9625

                     61                     62                     63
                      A                      A                      A
 Frequencies --   3071.3416              3648.8209              3678.9843
 Red. masses --      1.1079                 1.0677                 1.0655
 Frc consts  --      6.1578                 8.3754                 8.4965
 IR Inten    --     65.4194               143.8682                63.8683

                     64                     65                     66
                      A                      A                      A
 Frequencies --   3734.1571              3742.7187              3775.4492
 Red. masses --      1.0657                 1.0663                 1.0668
 Frc consts  --      8.7551                 8.8001                 8.9593
 IR Inten    --     19.3124                16.5746                31.6530

 - Thermochemistry -
 -------------------
 Temperature   298.150 Kelvin.  Pressure   1.00000 Atm.
 Atom     1 has atomic number  1 and mass   1.00783

 Molecular mass:   180.06339 amu.
 Principal axes and moments of inertia in atomic units:
                           1         2         3
     Eigenvalues --  1491.773172261.028692642.68424
           X            0.99961   0.02755   0.00410
           Y           -0.02751   0.99958  -0.00938
           Z           -0.00435   0.00927   0.99995
 This molecule is an asymmetric top.
 Rotational symmetry number  1.
 Warning -- assumption of classical behavior for rotation
           may cause significant error
 Rotational temperatures (Kelvin)      0.05806     0.03831     0.03277
 Rotational constants (GHZ):           1.20980     0.79819     0.68292
 Zero-point vibrational energy     519919.3 (Joules/Mol)
                                  124.26369 (Kcal/Mol)
 Warning -- explicit consideration of  21 degrees of freedom as
           vibrations may cause significant error
 Vibrational temperatures:    108.00   123.82   196.42   238.26   275.02
          (Kelvin)            310.63   344.21   368.61   408.20   414.63
                              516.26   534.17   567.66   579.89   639.24
                              669.18   689.56   762.35   816.42   823.03
                              868.97  1014.47  1159.61  1220.20  1275.20
                             1373.06  1483.16  1524.72  1537.90  1551.14
                             1565.38  1581.79  1612.76  1626.75  1633.12
                             1652.84  1761.25  1789.87  1800.48  1818.41
                             1834.73  1876.50  1926.37  1961.63  1982.96
                             2017.97  2024.60  2047.50  2070.10  2098.81
                             2110.30  2126.57  2142.76  2233.43  4350.61
                             4354.99  4366.62  4371.57  4382.49  4394.98
                             4418.97  5249.83  5293.23  5372.61  5384.93
                             5432.02

 Zero-point correction=                           0.198027 (Hartree/Particle)
 Thermal correction to Energy=                    0.210210
 Thermal correction to Enthalpy=                  0.211154
 Thermal correction to Gibbs Free Energy=         0.160669
 Sum of electronic and zero-point Energies=           -686.934938
 Sum of electronic and thermal Energies=              -686.922754
 Sum of electronic and thermal Enthalpies=            -686.921810
 Sum of electronic and thermal Free Energies=         -686.972295

                     E (Thermal)             CV                S
                      KCal/Mol        Cal/Mol-Kelvin    Cal/Mol-Kelvin
 Total                  131.909             46.722            106.255
 Electronic               0.000              0.000              0.000
 Translational            0.889              2.981             41.471
 Rotational               0.889              2.981             30.567
 Vibrational            130.131             40.761             34.217
 Vibration     1          0.599              1.966              4.016
 Vibration     2          0.601              1.959              3.748
 Vibration     3          0.614              1.917              2.852
 Vibration     4          0.624              1.885              2.485
 Vibration     5          0.634              1.852              2.217
 Vibration     6          0.645              1.817              1.993
 Vibration     7          0.657              1.780              1.809
 Vibration     8          0.666              1.752              1.688
 Vibration     9          0.682              1.704              1.511
 Vibration    10          0.685              1.696              1.485
 Vibration    11          0.734              1.557              1.127
 Vibration    12          0.743              1.531              1.075
 Vibration    13          0.762              1.482              0.983
 Vibration    14          0.768              1.464              0.952
 Vibration    15          0.804              1.373              0.813
 Vibration    16          0.823              1.327              0.751
 Vibration    17          0.836              1.296              0.712
 Vibration    18          0.885              1.184              0.588
 Vibration    19          0.923              1.102              0.509
 Vibration    20          0.928              1.092              0.500
 Vibration    21          0.962              1.023              0.443

 Normal termination of Gaussian 09 at Thu Jan 12 12:07:56 2017.
