 Gaussian 09, Revision D.01,
 Gaussian 09:  AM64L-G09RevD.01 24-Apr-2013

 -----------------------------------------
 # opt=(MaxCycle=1000) freq B3LYP/6-31G(d)
 -----------------------------------------

 -------------------------
 boat4_Alpha_B3LYP_6-31G_d
 -------------------------
 Symbolic Z-matrix:
 Charge =  0 Multiplicity = 1

 SCF Done:  E(RB3LYP) =  -687.119087510     A.U. after   14 cycles
 SCF Done:  E(RB3LYP) =  -687.133872382     A.U. after   12 cycles
 SCF Done:  E(RB3LYP) =  -687.136255836     A.U. after   11 cycles
 SCF Done:  E(RB3LYP) =  -687.136950482     A.U. after   11 cycles
 SCF Done:  E(RB3LYP) =  -687.137426073     A.U. after   11 cycles
 SCF Done:  E(RB3LYP) =  -687.137965271     A.U. after   12 cycles
 SCF Done:  E(RB3LYP) =  -687.138752854     A.U. after   12 cycles
 SCF Done:  E(RB3LYP) =  -687.139141028     A.U. after   11 cycles
 SCF Done:  E(RB3LYP) =  -687.139192983     A.U. after   11 cycles
 SCF Done:  E(RB3LYP) =  -687.139284368     A.U. after   11 cycles
 SCF Done:  E(RB3LYP) =  -687.139398115     A.U. after   10 cycles
 SCF Done:  E(RB3LYP) =  -687.139396718     A.U. after   10 cycles
 SCF Done:  E(RB3LYP) =  -687.139394218     A.U. after   10 cycles
 SCF Done:  E(RB3LYP) =  -687.139390395     A.U. after   10 cycles
 SCF Done:  E(RB3LYP) =  -687.139391788     A.U. after    8 cycles
 SCF Done:  E(RB3LYP) =  -687.139391217     A.U. after    8 cycles
 SCF Done:  E(RB3LYP) =  -687.139388491     A.U. after   10 cycles
 SCF Done:  E(RB3LYP) =  -687.139387901     A.U. after    8 cycles
 SCF Done:  E(RB3LYP) =  -687.139387419     A.U. after    8 cycles
 Optimization completed.
    -- Stationary point found.
 Normal termination of Gaussian 09 at Tue Jun 14 02:45:19 2016.

 --------------------------------------------------------------------
 #N Geom=AllCheck Guess=TCheck SCRF=Check GenChk RB3LYP/6-31G(d) Freq
 --------------------------------------------------------------------

 Structure from the checkpoint file:  "/home/iawad/scratch/MAIN/PRO_Halides/direct/optfreq/boat4_Alpha/boat4_Alpha_optfreq_B3LYP_6-31G_d.chk"
 -------------------------
 boat4_Alpha_B3LYP_6-31G_d
 -------------------------
 Charge =  0 Multiplicity = 1

                         Standard orientation:
 ---------------------------------------------------------------------
 Center     Atomic      Atomic             Coordinates (Angstroms)
 Number     Number       Type             X           Y           Z
 ---------------------------------------------------------------------
      1          8           0        0.182809   -1.290712   -0.712348
      2          6           0       -0.762481    0.883573   -0.250205
      3          6           0        1.687753    0.392045    0.321765
      4          6           0        0.623794    1.472363    0.093030
      5          6           0        1.514958   -0.812568   -0.613135
      6          6           0       -0.824655   -0.621603    0.057380
      7          1           0        0.520776    2.017691    1.040356
      8          1           0       -0.664300   -0.778791    1.132387
      9          1           0       -0.895587    0.983481   -1.342294
     10          6           0       -2.142614   -1.264885   -0.383498
     11          1           0       -2.291835   -1.094862   -1.453883
     12          1           0       -2.100389   -2.349903   -0.217700
     13          1           0        2.673330    0.836493    0.121743
     14          8           0       -3.278698   -0.683539    0.267091
     15          1           0       -3.230060   -0.910095    1.210014
     16          8           0        1.583011   -0.029833    1.674384
     17          1           0        2.034280   -0.892917    1.706274
     18          8           0        1.110473    2.323374   -0.941971
     19          1           0        0.457445    3.031443   -1.057353
     20          8           0       -1.738550    1.631232    0.457323
     21          1           0       -2.585496    1.160128    0.339812
     22          1           0        1.834310   -0.558004   -1.632230
     23          8           0        2.341966   -1.834453   -0.082640
     24          1           0        2.058913   -2.666776   -0.493860
 ---------------------------------------------------------------------

 SCF Done:  E(RB3LYP) =  -687.139387419     A.U. after    1 cycles

 The electronic state is 1-A.
 Alpha  occ. eigenvalues --  -19.17675 -19.16739 -19.16496 -19.14656 -19.14361
 Alpha  occ. eigenvalues --  -19.13681 -10.29136 -10.24706 -10.24294 -10.23796
 Alpha  occ. eigenvalues --  -10.23436 -10.23404  -1.08055  -1.04643  -1.02672
 Alpha  occ. eigenvalues --   -1.01912  -1.00859  -1.00652  -0.77810  -0.76880
 Alpha  occ. eigenvalues --   -0.69512  -0.64778  -0.63224  -0.56011  -0.55016
 Alpha  occ. eigenvalues --   -0.54645  -0.52864  -0.50595  -0.49579  -0.49057
 Alpha  occ. eigenvalues --   -0.45603  -0.44649  -0.43185  -0.42373  -0.40668
 Alpha  occ. eigenvalues --   -0.39911  -0.38954  -0.37889  -0.35785  -0.34939
 Alpha  occ. eigenvalues --   -0.33853  -0.32329  -0.30505  -0.29129  -0.28354
 Alpha  occ. eigenvalues --   -0.27336  -0.26011  -0.25375
 Alpha virt. eigenvalues --    0.04510   0.06214   0.08490   0.10476   0.10753
 Alpha virt. eigenvalues --    0.12509   0.13310   0.14206   0.14737   0.16076
 Alpha virt. eigenvalues --    0.16747   0.17203   0.18360   0.18796   0.20669

 Mulliken charges:
               1
     1  O   -0.534473
     2  C    0.107193
     3  C    0.080183
     4  C    0.126225
     5  C    0.342753
     6  C    0.087157
     7  H    0.163560
     8  H    0.146554
     9  H    0.118304
    10  C   -0.063378
    11  H    0.164252
    12  H    0.147735
    13  H    0.151544
    14  O   -0.619333
    15  H    0.404523
    16  O   -0.648443
    17  H    0.414011
    18  O   -0.643790
    19  H    0.402356
    20  O   -0.667731
    21  H    0.412238
    22  H    0.141950
    23  O   -0.636937
    24  H    0.403548
 Sum of Mulliken charges =   0.00000

 Dipole moment (field-independent basis, Debye):
    X=             -1.0437    Y=             -2.4958    Z=             -0.4679  Tot=              2.7454
 Quadrupole moment (field-independent basis, Debye-Ang):
   XX=            -73.3432   YY=            -64.3314   ZZ=            -70.2532
   XY=             -0.8223   XZ=             -3.3530   YZ=             -3.1597

  Exact polarizability:  87.654  -1.360  82.570  -2.298  -0.944  71.466
 Approx polarizability: 113.234  -4.190 111.422  -4.178  -0.596 109.994

                      1                      2                      3
                      A                      A                      A
 Frequencies --     11.5339                86.5795               103.8825
 Red. masses --      6.2420                 6.7870                 5.5878
 Frc consts  --      0.0005                 0.0300                 0.0355
 IR Inten    --      1.2746                 3.1722                 3.4048

                      4                      5                      6
                      A                      A                      A
 Frequencies --    166.3025               203.7903               222.6827
 Red. masses --      2.5280                 5.6492                 3.0067
 Frc consts  --      0.0412                 0.1382                 0.0878
 IR Inten    --      1.5646                 3.2524                22.6385

                      7                      8                      9
                      A                      A                      A
 Frequencies --    252.6378               275.5130               308.0175
 Red. masses --      1.6885                 3.0269                 4.8910
 Frc consts  --      0.0635                 0.1354                 0.2734
 IR Inten    --     66.8010                20.6503                 7.3478

                     10                     11                     12
                      A                      A                      A
 Frequencies --    341.3457               348.1962               359.3309
 Red. masses --      2.1426                 2.2987                 1.2385
 Frc consts  --      0.1471                 0.1642                 0.0942
 IR Inten    --     74.8935               103.3281                72.1715

                     13                     14                     15
                      A                      A                      A
 Frequencies --    376.9228               395.3285               420.2441
 Red. masses --      2.1241                 5.5726                 3.8446
 Frc consts  --      0.1778                 0.5131                 0.4000
 IR Inten    --    102.6531                 1.4861                20.7671

                     16                     17                     18
                      A                      A                      A
 Frequencies --    482.3505               506.2326               526.7482
 Red. masses --      2.9688                 2.7832                 1.7662
 Frc consts  --      0.4070                 0.4202                 0.2887
 IR Inten    --     38.9017                52.0705                53.4942

                     19                     20                     21
                      A                      A                      A
 Frequencies --    532.7384               590.5893               660.4880
 Red. masses --      3.4409                 4.8020                 1.1247
 Frc consts  --      0.5754                 0.9868                 0.2891
 IR Inten    --     18.9004                61.7715                80.9764

                     22                     23                     24
                      A                      A                      A
 Frequencies --    678.8574               827.4340               850.1405
 Red. masses --      4.8573                 5.9206                 3.5266
 Frc consts  --      1.3189                 2.3883                 1.5017
 IR Inten    --     19.2172                37.6844                17.7527

                     25                     26                     27
                      A                      A                      A
 Frequencies --    899.4735               974.7423              1014.7692
 Red. masses --      1.9417                 2.6580                 3.5099
 Frc consts  --      0.9256                 1.4880                 2.1295
 IR Inten    --      6.8695                 1.2369                98.9916

                     28                     29                     30
                      A                      A                      A
 Frequencies --   1041.5228              1059.1671              1070.4462
 Red. masses --      2.8056                 4.3070                 4.7961
 Frc consts  --      1.7931                 2.8468                 3.2380
 IR Inten    --     60.7438               107.5701                35.3275

                     31                     32                     33
                      A                      A                      A
 Frequencies --   1090.2611              1101.1006              1112.0797
 Red. masses --      3.8652                 1.9987                 3.4006
 Frc consts  --      2.7070                 1.4277                 2.4778
 IR Inten    --    152.0097                 4.6916                42.6017

                     34                     35                     36
                      A                      A                      A
 Frequencies --   1125.0976              1127.7469              1152.0845
 Red. masses --      3.7375                 4.9944                 2.7624
 Frc consts  --      2.7875                 3.7425                 2.1603
 IR Inten    --     17.3909               139.4053                22.7421

                     37                     38                     39
                      A                      A                      A
 Frequencies --   1204.3876              1226.7936              1272.7598
 Red. masses --      1.3802                 1.0950                 1.1403
 Frc consts  --      1.1796                 0.9710                 1.0883
 IR Inten    --     35.4197                75.7574                65.8570

                     40                     41                     42
                      A                      A                      A
 Frequencies --   1276.0237              1296.2666              1324.7148
 Red. masses --      1.2766                 1.1916                 1.1845
 Frc consts  --      1.2246                 1.1797                 1.2247
 IR Inten    --     59.2940                24.6430                 4.9241

                     43                     44                     45
                      A                      A                      A
 Frequencies --   1352.3924              1371.0259              1382.4510
 Red. masses --      1.2094                 1.2941                 1.2264
 Frc consts  --      1.3032                 1.4332                 1.3810
 IR Inten    --      8.8832                49.9399                16.9670

                     46                     47                     48
                      A                      A                      A
 Frequencies --   1391.2633              1407.3712              1421.4383
 Red. masses --      1.2815                 1.1945                 1.2727
 Frc consts  --      1.4615                 1.3940                 1.5151
 IR Inten    --     13.5269                27.8073                51.2438

                     49                     50                     51
                      A                      A                      A
 Frequencies --   1422.1051              1444.9515              1456.4641
 Red. masses --      1.3450                 1.3971                 1.6434
 Frc consts  --      1.6026                 1.7186                 2.0539
 IR Inten    --     17.3363                34.1883                 4.3341

                     52                     53                     54
                      A                      A                      A
 Frequencies --   1464.6013              1486.5123              1536.5599
 Red. masses --      1.6781                 1.5897                 1.0906
 Frc consts  --      2.1208                 2.0697                 1.5171
 IR Inten    --     14.9896                35.0203                 2.0815

                     55                     56                     57
                      A                      A                      A
 Frequencies --   2964.4993              3031.6747              3043.7867
 Red. masses --      1.0827                 1.0843                 1.0688
 Frc consts  --      5.6060                 5.8720                 5.8339
 IR Inten    --     37.0681                21.1710                45.9797

                     58                     59                     60
                      A                      A                      A
 Frequencies --   3050.9516              3053.2238              3053.7356
 Red. masses --      1.0830                 1.0864                 1.0843
 Frc consts  --      5.9395                 5.9668                 5.9576
 IR Inten    --     11.2759                72.9250                35.8236

                     61                     62                     63
                      A                      A                      A
 Frequencies --   3121.5564              3640.1340              3684.8341
 Red. masses --      1.1003                 1.0655                 1.0646
 Frc consts  --      6.3170                 8.3186                 8.5168
 IR Inten    --     27.8125               150.0091                61.4082

                     64                     65                     66
                      A                      A                      A
 Frequencies --   3734.2245              3746.5481              3748.8575
 Red. masses --      1.0661                 1.0663                 1.0658
 Frc consts  --      8.7591                 8.8182                 8.8248
 IR Inten    --     22.9407                24.8738                35.5462

 - Thermochemistry -
 -------------------
 Temperature   298.150 Kelvin.  Pressure   1.00000 Atm.
 Atom     1 has atomic number  8 and mass  15.99491

 Molecular mass:   180.06339 amu.
 Principal axes and moments of inertia in atomic units:
                           1         2         3
     Eigenvalues --  1477.817242313.668593112.07544
           X            0.99990   0.01426  -0.00155
           Y           -0.01426   0.99989  -0.00492
           Z            0.00148   0.00495   0.99999
 This molecule is an asymmetric top.
 Rotational symmetry number  1.
 Warning -- assumption of classical behavior for rotation
           may cause significant error
 Rotational temperatures (Kelvin)      0.05861     0.03744     0.02783
 Rotational constants (GHZ):           1.22122     0.78003     0.57992
 Zero-point vibrational energy     519828.2 (Joules/Mol)
                                  124.24192 (Kcal/Mol)
 Warning -- explicit consideration of  20 degrees of freedom as
           vibrations may cause significant error
 Vibrational temperatures:     16.59   124.57   149.46   239.27   293.21
          (Kelvin)            320.39   363.49   396.40   443.17   491.12
                              500.98   517.00   542.31   568.79   604.64
                              693.99   728.35   757.87   766.49   849.73
                              950.29   976.72  1190.49  1223.16  1294.14
                             1402.44  1460.02  1498.52  1523.90  1540.13
                             1568.64  1584.24  1600.03  1618.76  1622.57
                             1657.59  1732.84  1765.08  1831.22  1835.91
                             1865.04  1905.97  1945.79  1972.60  1989.04
                             2001.72  2024.89  2045.13  2046.09  2078.96
                             2095.52  2107.23  2138.76  2210.76  4265.25
                             4361.90  4379.32  4389.63  4392.90  4393.64
                             4491.22  5237.33  5301.65  5372.71  5390.44
                             5393.76

 Zero-point correction=                           0.197992 (Hartree/Particle)
 Thermal correction to Energy=                    0.210226
 Thermal correction to Enthalpy=                  0.211170
 Thermal correction to Gibbs Free Energy=         0.158921
 Sum of electronic and zero-point Energies=           -686.941395
 Sum of electronic and thermal Energies=              -686.929162
 Sum of electronic and thermal Enthalpies=            -686.928218
 Sum of electronic and thermal Free Energies=         -686.980467

                     E (Thermal)             CV                S
                      KCal/Mol        Cal/Mol-Kelvin    Cal/Mol-Kelvin
 Total                  131.919             46.553            109.968
 Electronic               0.000              0.000              0.000
 Translational            0.889              2.981             41.471
 Rotational               0.889              2.981             30.743
 Vibrational            130.141             40.591             37.753
 Vibration     1          0.593              1.987              7.728
 Vibration     2          0.601              1.959              3.736
 Vibration     3          0.605              1.946              3.380
 Vibration     4          0.624              1.884              2.477
 Vibration     5          0.639              1.835              2.099
 Vibration     6          0.648              1.807              1.937
 Vibration     7          0.664              1.758              1.712
 Vibration     8          0.677              1.719              1.561
 Vibration     9          0.698              1.658              1.373
 Vibration    10          0.721              1.593              1.206
 Vibration    11          0.726              1.579              1.174
 Vibration    12          0.734              1.556              1.125
 Vibration    13          0.747              1.519              1.051
 Vibration    14          0.762              1.480              0.980
 Vibration    15          0.783              1.426              0.891
 Vibration    16          0.839              1.289              0.704
 Vibration    17          0.861              1.236              0.643
 Vibration    18          0.882              1.191              0.595
 Vibration    19          0.888              1.178              0.581
 Vibration    20          0.948              1.052              0.466

 Optimization completed.
    -- Stationary point found.
 Normal termination of Gaussian 09 at Tue Jun 14 02:57:01 2016.
