 Gaussian 09, Revision E.01,
 Gaussian 09:  ES64L-G09RevE.01 30-Nov-2015

 -----------------------------------------
 # opt=(MaxCycle=1000) freq B3LYP/6-31G(d)
 -----------------------------------------

 ------------------------
 boat5_Beta_B3LYP_6-31G_d
 ------------------------
 Symbolic Z-matrix:
 Charge =  0 Multiplicity = 1

 SCF Done:  E(RB3LYP) =  -687.100186353     A.U. after   14 cycles
 SCF Done:  E(RB3LYP) =  -687.116781085     A.U. after   13 cycles
 SCF Done:  E(RB3LYP) =  -687.120518399     A.U. after   11 cycles
 SCF Done:  E(RB3LYP) =  -687.121654518     A.U. after   11 cycles
 SCF Done:  E(RB3LYP) =  -687.123007126     A.U. after   12 cycles
 SCF Done:  E(RB3LYP) =  -687.070238907     A.U. after   14 cycles
 SCF Done:  E(RB3LYP) =  -687.123841259     A.U. after   12 cycles
 SCF Done:  E(RB3LYP) =  -687.125310430     A.U. after   11 cycles
 SCF Done:  E(RB3LYP) =  -687.127490558     A.U. after   12 cycles
 SCF Done:  E(RB3LYP) =  -687.128340780     A.U. after   12 cycles
 SCF Done:  E(RB3LYP) =  -687.129210514     A.U. after   10 cycles
 SCF Done:  E(RB3LYP) =  -687.129223942     A.U. after    9 cycles
 SCF Done:  E(RB3LYP) =  -687.129232883     A.U. after    9 cycles
 SCF Done:  E(RB3LYP) =  -687.129238445     A.U. after    9 cycles
 SCF Done:  E(RB3LYP) =  -687.129241213     A.U. after    9 cycles
 SCF Done:  E(RB3LYP) =  -687.129242928     A.U. after    9 cycles
 SCF Done:  E(RB3LYP) =  -687.129243379     A.U. after    8 cycles
 SCF Done:  E(RB3LYP) =  -687.129243159     A.U. after    7 cycles
 SCF Done:  E(RB3LYP) =  -687.129243045     A.U. after    7 cycles
 Optimization completed.
    -- Stationary point found.
 Normal termination of Gaussian 09 at Thu Jan 12 12:24:13 2017.

 --------------------------------------------------------------------
 #N Geom=AllCheck Guess=TCheck SCRF=Check GenChk RB3LYP/6-31G(d) Freq
 --------------------------------------------------------------------

 Structure from the checkpoint file:  "/scratch/10454692.yak.local/Gau-21123.chk"
 ------------------------
 boat5_Beta_B3LYP_6-31G_d
 ------------------------
 Charge =  0 Multiplicity = 1

                         Standard orientation:
 ---------------------------------------------------------------------
 Center     Atomic      Atomic             Coordinates (Angstroms)
 Number     Number       Type             X           Y           Z
 ---------------------------------------------------------------------
      1          8           0        0.061308    1.366045    0.252543
      2          6           0        0.675592   -1.048181    0.102158
      3          6           0       -1.675338   -0.261708   -0.329546
      4          6           0       -0.461904   -0.995575   -0.930409
      5          6           0       -1.273560    0.984019    0.510712
      6          6           0        1.055814    0.386186    0.557618
      7          1           0       -0.766252   -2.031632   -1.156686
      8          1           0        1.202883    0.339461    1.650565
      9          1           0        1.568692   -1.507475   -0.336916
     10          1           0       -2.334821    0.059820   -1.145685
     11          6           0        2.333914    0.906948   -0.111606
     12          1           0        2.519059    1.936527    0.226775
     13          1           0        2.179890    0.935681   -1.193718
     14          1           0       -1.414508    0.739282    1.573681
     15          8           0       -2.085772    2.087533    0.258000
     16          1           0       -1.840216    2.415659   -0.624208
     17          8           0        3.452063    0.060685    0.112575
     18          1           0        3.644313    0.064416    1.063539
     19          8           0       -2.374547   -1.121140    0.584367
     20          1           0       -2.767894   -1.850021    0.077924
     21          8           0       -0.104024   -0.305601   -2.121916
     22          1           0        0.642924   -0.775970   -2.524601
     23          8           0        0.310604   -1.888579    1.192491
     24          1           0       -0.638247   -1.747420    1.371286
 ---------------------------------------------------------------------

 SCF Done:  E(RB3LYP) =  -687.129243045     A.U. after    1 cycles

 The electronic state is 1-A.
 Alpha  occ. eigenvalues --  -19.17878 -19.16425 -19.15673 -19.15600 -19.15265
 Alpha  occ. eigenvalues --  -19.13845 -10.29005 -10.25077 -10.25048 -10.23841
 Alpha  occ. eigenvalues --  -10.23717 -10.23261  -1.07789  -1.04824  -1.03625
 Alpha  occ. eigenvalues --   -1.02519  -1.01410  -1.00356  -0.77558  -0.76887
 Alpha  occ. eigenvalues --   -0.68911  -0.66021  -0.62812  -0.58131  -0.55897
 Alpha  occ. eigenvalues --   -0.54084  -0.51830  -0.50771  -0.50181  -0.48675
 Alpha  occ. eigenvalues --   -0.46638  -0.44577  -0.43855  -0.42456  -0.39858
 Alpha  occ. eigenvalues --   -0.39169  -0.39080  -0.37494  -0.36015  -0.35138
 Alpha  occ. eigenvalues --   -0.34134  -0.33356  -0.30183  -0.29722  -0.28779
 Alpha  occ. eigenvalues --   -0.27421  -0.26461  -0.24690
 Alpha virt. eigenvalues --    0.04129   0.05554   0.06579   0.08884   0.10242
 Alpha virt. eigenvalues --    0.10883   0.12660   0.13850   0.14702   0.16370
 Alpha virt. eigenvalues --    0.16550   0.17436   0.17939   0.19668   0.20400

 Mulliken charges:
               1
     1  O   -0.507075
     2  C    0.071292
     3  C    0.052490
     4  C    0.094688
     5  C    0.363438
     6  C    0.127391
     7  H    0.118460
     8  H    0.127024
     9  H    0.151665
    10  H    0.151330
    11  C   -0.062970
    12  H    0.142674
    13  H    0.155701
    14  H    0.146466
    15  O   -0.609370
    16  H    0.396862
    17  O   -0.612682
    18  H    0.395262
    19  O   -0.632528
    20  H    0.404644
    21  O   -0.626014
    22  H    0.401544
    23  O   -0.661606
    24  H    0.411313
 Sum of Mulliken charges =  -0.00000

 Dipole moment (field-independent basis, Debye):
    X=             -0.3756    Y=             -1.3118    Z=             -1.5991  Tot=              2.1022
 Quadrupole moment (field-independent basis, Debye-Ang):
   XX=            -71.1732   YY=            -71.6081   ZZ=            -67.6216
   XY=              7.9341   XZ=              6.3236   YZ=              3.1033

  Exact polarizability:  88.911   0.014  77.306   0.435  -2.208  74.722
 Approx polarizability: 114.625  -3.008 109.370  -1.872  -7.184 112.269

                      1                      2                      3
                      A                      A                      A
 Frequencies --     25.8422                79.5281               128.0040
 Red. masses --      5.7925                 5.4053                 3.3243
 Frc consts  --      0.0023                 0.0201                 0.0321
 IR Inten    --      1.7525                 4.9222                 1.8679

                      4                      5                      6
                      A                      A                      A
 Frequencies --    158.8443               215.8523               227.9338
 Red. masses --      4.5635                 4.1201                 6.4327
 Frc consts  --      0.0678                 0.1131                 0.1969
 IR Inten    --      7.4645                 0.5497                 3.0584

                      7                      8                      9
                      A                      A                      A
 Frequencies --    235.0205               276.2933               307.0847
 Red. masses --      5.8152                 2.2301                 1.0734
 Frc consts  --      0.1892                 0.1003                 0.0596
 IR Inten    --      3.5725                 1.9449               112.7975

                     10                     11                     12
                      A                      A                      A
 Frequencies --    318.8150               336.6067               355.2866
 Red. masses --      1.5259                 1.2215                 1.6615
 Frc consts  --      0.0914                 0.0815                 0.1236
 IR Inten    --     88.3326                97.7915               168.2189

                     13                     14                     15
                      A                      A                      A
 Frequencies --    362.9099               385.7759               402.3587
 Red. masses --      3.1733                 3.0492                 4.2771
 Frc consts  --      0.2462                 0.2674                 0.4080
 IR Inten    --     11.6542                16.7051                25.7371

                     16                     17                     18
                      A                      A                      A
 Frequencies --    452.7244               487.1516               503.1273
 Red. masses --      3.5539                 4.0733                 5.4716
 Frc consts  --      0.4292                 0.5695                 0.8161
 IR Inten    --     43.7151                31.1585                18.8499

                     19                     20                     21
                      A                      A                      A
 Frequencies --    550.7511               564.4060               594.7309
 Red. masses --      4.1386                 2.8043                 1.5004
 Frc consts  --      0.7396                 0.5263                 0.3127
 IR Inten    --     27.1813                21.7534                54.0804

                     22                     23                     24
                      A                      A                      A
 Frequencies --    632.7357               798.1256               849.2828
 Red. masses --      4.8729                 3.1119                 3.5668
 Frc consts  --      1.1494                 1.1679                 1.5158
 IR Inten    --     16.4452                 0.5549                 2.5461

                     25                     26                     27
                      A                      A                      A
 Frequencies --    914.9187               969.4476              1022.4956
 Red. masses --      3.0519                 2.5509                 2.1140
 Frc consts  --      1.5052                 1.4125                 1.3022
 IR Inten    --      5.6065                79.1341                44.0118

                     28                     29                     30
                      A                      A                      A
 Frequencies --   1050.3948              1058.7035              1081.1304
 Red. masses --      2.7448                 4.6275                 2.2369
 Frc consts  --      1.7843                 3.0560                 1.5405
 IR Inten    --     49.2088                42.3481                38.1867

                     31                     32                     33
                      A                      A                      A
 Frequencies --   1093.5064              1102.8884              1110.5465
 Red. masses --      5.2509                 2.9545                 4.8590
 Frc consts  --      3.6994                 2.1173                 3.5308
 IR Inten    --    133.0315                53.9769               150.1571

                     34                     35                     36
                      A                      A                      A
 Frequencies --   1115.7788              1140.1690              1143.5372
 Red. masses --      2.7945                 3.2640                 3.0980
 Frc consts  --      2.0498                 2.5000                 2.3869
 IR Inten    --     13.2018                92.5289               109.0561

                     37                     38                     39
                      A                      A                      A
 Frequencies --   1208.8774              1219.7194              1231.0386
 Red. masses --      1.2673                 1.2725                 1.2119
 Frc consts  --      1.0912                 1.1154                 1.0821
 IR Inten    --     62.2648                33.4932                 2.9381

                     40                     41                     42
                      A                      A                      A
 Frequencies --   1275.7674              1326.0142              1333.3668
 Red. masses --      1.4047                 1.1648                 1.2168
 Frc consts  --      1.3470                 1.2067                 1.2746
 IR Inten    --     66.3426                11.7675                 2.9151

                     43                     44                     45
                      A                      A                      A
 Frequencies --   1347.4230              1348.3264              1359.7073
 Red. masses --      1.4527                 1.2442                 1.3828
 Frc consts  --      1.5539                 1.3327                 1.5062
 IR Inten    --     14.4717                 4.1986                31.8924

                     46                     47                     48
                      A                      A                      A
 Frequencies --   1382.6353              1408.5722              1413.7016
 Red. masses --      1.2933                 1.3028                 1.4604
 Frc consts  --      1.4567                 1.5229                 1.7196
 IR Inten    --      2.1658                45.5881                14.8873

                     49                     50                     51
                      A                      A                      A
 Frequencies --   1418.9355              1432.0029              1455.8835
 Red. masses --      1.5370                 1.3352                 1.3527
 Frc consts  --      1.8232                 1.6131                 1.6893
 IR Inten    --     24.4274                 3.6572                51.7234

                     52                     53                     54
                      A                      A                      A
 Frequencies --   1471.2207              1492.8303              1540.3556
 Red. masses --      1.4570                 1.2018                 1.0838
 Frc consts  --      1.8581                 1.5779                 1.5151
 IR Inten    --     15.8588                90.6554                 2.2575

                     55                     56                     57
                      A                      A                      A
 Frequencies --   2978.2451              2982.3181              3033.5002
 Red. masses --      1.0835                 1.0846                 1.0695
 Frc consts  --      5.6623                 5.6838                 5.7987
 IR Inten    --     77.1140                44.9482                53.8528

                     58                     59                     60
                      A                      A                      A
 Frequencies --   3033.7747              3056.6452              3074.5862
 Red. masses --      1.0856                 1.0864                 1.0864
 Frc consts  --      5.8867                 5.9805                 6.0509
 IR Inten    --     30.8777                36.6513                20.1444

                     61                     62                     63
                      A                      A                      A
 Frequencies --   3126.0693              3642.4319              3712.7992
 Red. masses --      1.0967                 1.0666                 1.0650
 Frc consts  --      6.3143                 8.3372                 8.6499
 IR Inten    --     26.0022               119.0137                22.4784

                     64                     65                     66
                      A                      A                      A
 Frequencies --   3737.7004              3738.0067              3741.0959
 Red. masses --      1.0661                 1.0662                 1.0663
 Frc consts  --      8.7755                 8.7776                 8.7931
 IR Inten    --     17.8480                19.3250                17.3921

 - Thermochemistry -
 -------------------
 Temperature   298.150 Kelvin.  Pressure   1.00000 Atm.
 Atom     1 has atomic number  8 and mass  15.99491

 Molecular mass:   180.06339 amu.
 Principal axes and moments of inertia in atomic units:
                           1         2         3
     Eigenvalues --  1402.544122433.551132831.53662
           X            0.99970   0.02331   0.00786
           Y           -0.02344   0.99959   0.01662
           Z           -0.00747  -0.01680   0.99983
 This molecule is an asymmetric top.
 Rotational symmetry number  1.
 Warning -- assumption of classical behavior for rotation
           may cause significant error
 Rotational temperatures (Kelvin)      0.06175     0.03559     0.03059
 Rotational constants (GHZ):           1.28676     0.74161     0.63737
 Zero-point vibrational energy     517841.0 (Joules/Mol)
                                  123.76698 (Kcal/Mol)
 Warning -- explicit consideration of  21 degrees of freedom as
           vibrations may cause significant error
 Vibrational temperatures:     37.18   114.42   184.17   228.54   310.56
          (Kelvin)            327.95   338.14   397.52   441.83   458.70
                              484.30   511.18   522.15   555.04   578.90
                              651.37   700.90   723.89   792.41   812.05
                              855.68   910.36  1148.32  1221.93  1316.36
                             1394.82  1471.14  1511.28  1523.24  1555.50
                             1573.31  1586.81  1597.83  1605.35  1640.45
                             1645.29  1739.30  1754.90  1771.19  1835.54
                             1907.84  1918.42  1938.64  1939.94  1956.31
                             1989.30  2026.62  2034.00  2041.53  2060.33
                             2094.69  2116.76  2147.85  2216.23  4285.03
                             4290.89  4364.52  4364.92  4397.83  4423.64
                             4497.71  5240.64  5341.88  5377.71  5378.15
                             5382.60

 Zero-point correction=                           0.197235 (Hartree/Particle)
 Thermal correction to Energy=                    0.209622
 Thermal correction to Enthalpy=                  0.210566
 Thermal correction to Gibbs Free Energy=         0.158862
 Sum of electronic and zero-point Energies=           -686.932008
 Sum of electronic and thermal Energies=              -686.919621
 Sum of electronic and thermal Enthalpies=            -686.918677
 Sum of electronic and thermal Free Energies=         -686.970381

                     E (Thermal)             CV                S
                      KCal/Mol        Cal/Mol-Kelvin    Cal/Mol-Kelvin
 Total                  131.540             47.161            108.822
 Electronic               0.000              0.000              0.000
 Translational            0.889              2.981             41.471
 Rotational               0.889              2.981             30.648
 Vibrational            129.762             41.200             36.703
 Vibration     1          0.593              1.985              6.125
 Vibration     2          0.600              1.963              3.902
 Vibration     3          0.611              1.925              2.976
 Vibration     4          0.621              1.893              2.564
 Vibration     5          0.645              1.817              1.994
 Vibration     6          0.651              1.798              1.895
 Vibration     7          0.655              1.787              1.840
 Vibration     8          0.678              1.717              1.557
 Vibration     9          0.697              1.660              1.378
 Vibration    10          0.705              1.638              1.316
 Vibration    11          0.717              1.602              1.228
 Vibration    12          0.731              1.564              1.143
 Vibration    13          0.737              1.549              1.110
 Vibration    14          0.754              1.501              1.016
 Vibration    15          0.768              1.465              0.954
 Vibration    16          0.811              1.355              0.788
 Vibration    17          0.843              1.279              0.691
 Vibration    18          0.858              1.243              0.650
 Vibration    19          0.906              1.138              0.543
 Vibration    20          0.920              1.108              0.515
 Vibration    21          0.952              1.043              0.459

 Normal termination of Gaussian 09 at Thu Jan 12 12:29:20 2017.
