 Gaussian 09, Revision D.01,
 Gaussian 09:  AM64L-G09RevD.01 24-Apr-2013

 -----------------------------------------
 # opt=(MaxCycle=1000) freq B3LYP/6-31G(d)
 -----------------------------------------

 ------------------------
 boat1_Beta_B3LYP_6-31G_d
 ------------------------
 Symbolic Z-matrix:
 Charge =  0 Multiplicity = 1

 SCF Done:  E(RB3LYP) =  -687.127088527     A.U. after   14 cycles
 SCF Done:  E(RB3LYP) =  -687.136413215     A.U. after   12 cycles
 SCF Done:  E(RB3LYP) =  -687.138533662     A.U. after   12 cycles
 SCF Done:  E(RB3LYP) =  -687.139873736     A.U. after   12 cycles
 SCF Done:  E(RB3LYP) =  -687.140468104     A.U. after   12 cycles
 SCF Done:  E(RB3LYP) =  -687.140870123     A.U. after   11 cycles
 SCF Done:  E(RB3LYP) =  -687.141028491     A.U. after   11 cycles
 SCF Done:  E(RB3LYP) =  -687.141068880     A.U. after   11 cycles
 SCF Done:  E(RB3LYP) =  -687.141079022     A.U. after    8 cycles
 SCF Done:  E(RB3LYP) =  -687.141082950     A.U. after    8 cycles
 SCF Done:  E(RB3LYP) =  -687.141083470     A.U. after    7 cycles
 SCF Done:  E(RB3LYP) =  -687.141083500     A.U. after    6 cycles
 SCF Done:  E(RB3LYP) =  -687.141083555     A.U. after    7 cycles
 SCF Done:  E(RB3LYP) =  -687.141083592     A.U. after    6 cycles
 Optimization completed.
    -- Stationary point found.
 Normal termination of Gaussian 09 at Tue Jun 14 00:48:34 2016.

 --------------------------------------------------------------------
 #N Geom=AllCheck Guess=TCheck SCRF=Check GenChk RB3LYP/6-31G(d) Freq
 --------------------------------------------------------------------

 Structure from the checkpoint file:  "/home/iawad/scratch/MAIN/PRO_Halides/direct/optfreq/boat1_Beta/boat1_Beta_optfreq_B3LYP_6-31G_d.chk"
 ------------------------
 boat1_Beta_B3LYP_6-31G_d
 ------------------------
 Charge =  0 Multiplicity = 1

                         Standard orientation:
 ---------------------------------------------------------------------
 Center     Atomic      Atomic             Coordinates (Angstroms)
 Number     Number       Type             X           Y           Z
 ---------------------------------------------------------------------
      1          1           0       -1.366058    0.180460    1.624203
      2          6           0       -1.076870   -0.266568    0.665898
      3          6           0        0.981057    1.039683    0.190440
      4          6           0        0.960328   -1.489154    0.103669
      5          6           0        1.752185   -0.206725   -0.230976
      6          8           0       -0.124793   -1.291345    0.993939
      7          6           0       -0.481207    0.867313   -0.189340
      8          1           0        1.619412   -2.177070    0.643679
      9          1           0        1.883887   -0.169704   -1.321322
     10          1           0       -0.542912    0.612176   -1.259221
     11          6           0       -2.319056   -0.878451    0.018862
     12          1           0       -2.738747   -1.653733    0.675435
     13          1           0       -2.039488   -1.338466   -0.938268
     14          8           0        0.529503   -2.044542   -1.125962
     15          1           0        0.108239   -2.894355   -0.916899
     16          1           0        1.051860    1.141036    1.285301
     17          8           0       -3.246995    0.197722   -0.172838
     18          1           0       -3.989790   -0.124337   -0.703950
     19          8           0        3.011047   -0.292718    0.424042
     20          1           0        3.464848    0.547924    0.248296
     21          8           0        1.573043    2.159540   -0.451445
     22          1           0        0.942957    2.891882   -0.339572
     23          8           0       -1.143095    2.101850    0.056903
     24          1           0       -2.082507    1.943548   -0.146119
 ---------------------------------------------------------------------

 SCF Done:  E(RB3LYP) =  -687.141083592     A.U. after    1 cycles

 The electronic state is 1-A.
 Alpha  occ. eigenvalues --  -19.17274 -19.16060 -19.16024 -19.14594 -19.14196
 Alpha  occ. eigenvalues --  -19.14169 -10.28670 -10.24420 -10.24210 -10.23542
 Alpha  occ. eigenvalues --  -10.23236 -10.22947  -1.07220  -1.04232  -1.03185
 Alpha  occ. eigenvalues --   -1.01711  -1.00545  -1.00146  -0.78272  -0.76889
 Alpha  occ. eigenvalues --   -0.69451  -0.63858  -0.62379  -0.56480  -0.55213
 Alpha  occ. eigenvalues --   -0.54850  -0.52104  -0.51350  -0.48279  -0.47267
 Alpha  occ. eigenvalues --   -0.45153  -0.44689  -0.43039  -0.42672  -0.41510
 Alpha  occ. eigenvalues --   -0.40115  -0.38298  -0.37510  -0.36033  -0.34930
 Alpha  occ. eigenvalues --   -0.32291  -0.31361  -0.30729  -0.29265  -0.27746
 Alpha  occ. eigenvalues --   -0.26695  -0.26542  -0.25685
 Alpha virt. eigenvalues --    0.04136   0.06352   0.08759   0.10759   0.11085
 Alpha virt. eigenvalues --    0.12197   0.13182   0.14264   0.15228   0.15917
 Alpha virt. eigenvalues --    0.17037   0.17516   0.18183   0.18568   0.20848

 Mulliken charges:
               1
     1  H    0.157363
     2  C    0.128461
     3  C    0.113803
     4  C    0.299043
     5  C    0.124786
     6  O   -0.510877
     7  C    0.078481
     8  H    0.160688
     9  H    0.155195
    10  H    0.134159
    11  C   -0.064984
    12  H    0.139521
    13  H    0.141260
    14  O   -0.618358
    15  H    0.394509
    16  H    0.134012
    17  O   -0.637938
    18  H    0.407620
    19  O   -0.647682
    20  H    0.406846
    21  O   -0.661413
    22  H    0.414253
    23  O   -0.669947
    24  H    0.421199
 Sum of Mulliken charges =   0.00000

 Dipole moment (field-independent basis, Debye):
    X=             -3.5355    Y=             -1.4398    Z=             -1.0658  Tot=              3.9634
 Quadrupole moment (field-independent basis, Debye-Ang):
   XX=            -62.3871   YY=            -65.8883   ZZ=            -73.3298
   XY=              5.4157   XZ=              4.5224   YZ=              1.5270

  Exact polarizability:  91.724   0.662  83.834   1.530   0.465  65.210
 Approx polarizability: 115.128  -1.519 115.062   1.462   0.053 102.382

                      1                      2                      3
                      A                      A                      A
 Frequencies --     44.7964               102.6641               121.8857
 Red. masses --      5.4948                 6.5665                 6.3282
 Frc consts  --      0.0065                 0.0408                 0.0554
 IR Inten    --      0.4151                 2.0339                 1.9097

                      4                      5                      6
                      A                      A                      A
 Frequencies --    137.9158               204.9916               234.7105
 Red. masses --      3.9306                 2.6372                 2.7662
 Frc consts  --      0.0440                 0.0653                 0.0898
 IR Inten    --      7.2796                19.5966                 4.0987

                      7                      8                      9
                      A                      A                      A
 Frequencies --    240.2096               252.2130               272.0160
 Red. masses --      1.6983                 3.3802                 3.9024
 Frc consts  --      0.0577                 0.1267                 0.1701
 IR Inten    --     79.7762                13.0913                16.5303

                     10                     11                     12
                      A                      A                      A
 Frequencies --    321.3430               372.1677               393.6854
 Red. masses --      3.9039                 3.4202                 1.6280
 Frc consts  --      0.2375                 0.2791                 0.1487
 IR Inten    --      0.6575                10.7214                44.8635

                     13                     14                     15
                      A                      A                      A
 Frequencies --    413.6563               422.7001               427.7110
 Red. masses --      2.8779                 1.2664                 1.4307
 Frc consts  --      0.2901                 0.1333                 0.1542
 IR Inten    --     44.0146               143.1181               117.2458

                     16                     17                     18
                      A                      A                      A
 Frequencies --    454.9839               476.2552               507.9478
 Red. masses --      3.0297                 3.8997                 4.3979
 Frc consts  --      0.3695                 0.5211                 0.6685
 IR Inten    --     26.4775                24.5366                11.8851

                     19                     20                     21
                      A                      A                      A
 Frequencies --    524.2544               545.8528               570.3912
 Red. masses --      1.2319                 3.8282                 3.5911
 Frc consts  --      0.1995                 0.6720                 0.6884
 IR Inten    --     95.8657                18.1135                46.3875

                     22                     23                     24
                      A                      A                      A
 Frequencies --    618.0005               762.7514               917.3653
 Red. masses --      3.5223                 5.5527                 1.9357
 Frc consts  --      0.7926                 1.9034                 0.9598
 IR Inten    --     38.7050                26.2939                 1.3294

                     25                     26                     27
                      A                      A                      A
 Frequencies --    931.7308               997.9028              1014.1647
 Red. masses --      4.1044                 2.9562                 3.1372
 Frc consts  --      2.0993                 1.7344                 1.9011
 IR Inten    --     47.4971                 7.7866                38.0961

                     28                     29                     30
                      A                      A                      A
 Frequencies --   1040.4478              1057.5911              1060.0103
 Red. masses --      5.0408                 3.7151                 5.5545
 Frc consts  --      3.2151                 2.4483                 3.6772
 IR Inten    --    108.9804               222.3689                 7.4456

                     31                     32                     33
                      A                      A                      A
 Frequencies --   1094.6204              1111.3397              1128.9747
 Red. masses --      2.8438                 2.5214                 3.1505
 Frc consts  --      2.0076                 1.8348                 2.3659
 IR Inten    --    164.6210                31.0992                36.0036

                     34                     35                     36
                      A                      A                      A
 Frequencies --   1140.7757              1146.0285              1161.2731
 Red. masses --      3.3372                 4.4744                 3.5142
 Frc consts  --      2.5587                 3.4624                 2.7922
 IR Inten    --     76.8745                38.2118                29.3464

                     37                     38                     39
                      A                      A                      A
 Frequencies --   1220.9504              1238.6780              1254.5833
 Red. masses --      1.1977                 1.1453                 1.1832
 Frc consts  --      1.0520                 1.0353                 1.0973
 IR Inten    --     11.5669                29.2125                20.4366

                     40                     41                     42
                      A                      A                      A
 Frequencies --   1258.1606              1281.6546              1287.6141
 Red. masses --      1.1911                 1.1366                 1.1506
 Frc consts  --      1.1109                 1.1000                 1.1239
 IR Inten    --     31.1006                44.4807                46.4786

                     43                     44                     45
                      A                      A                      A
 Frequencies --   1336.4091              1367.5402              1376.3879
 Red. masses --      1.2302                 1.2805                 1.1845
 Frc consts  --      1.2945                 1.4110                 1.3221
 IR Inten    --      7.6246                76.4784                11.8781

                     46                     47                     48
                      A                      A                      A
 Frequencies --   1390.7754              1398.7959              1414.0409
 Red. masses --      1.2053                 1.2328                 1.3516
 Frc consts  --      1.3736                 1.4212                 1.5923
 IR Inten    --     69.2651                 2.9903                18.5256

                     49                     50                     51
                      A                      A                      A
 Frequencies --   1418.9255              1443.9867              1458.8539
 Red. masses --      1.4126                 1.6455                 1.5101
 Frc consts  --      1.6757                 2.0215                 1.8936
 IR Inten    --     12.6787                13.5118                 1.2072

                     52                     53                     54
                      A                      A                      A
 Frequencies --   1480.9094              1484.1951              1556.7251
 Red. masses --      1.5499                 1.6426                 1.0845
 Frc consts  --      2.0027                 2.1319                 1.5485
 IR Inten    --     11.1164                24.5452                 3.8053

                     55                     56                     57
                      A                      A                      A
 Frequencies --   2999.1456              3011.2045              3025.7954
 Red. masses --      1.0814                 1.0842                 1.0563
 Frc consts  --      5.7309                 5.7924                 5.6979
 IR Inten    --      2.1919                40.3511                46.0385

                     58                     59                     60
                      A                      A                      A
 Frequencies --   3041.7806              3062.8207              3081.9726
 Red. masses --      1.0849                 1.0954                 1.0986
 Frc consts  --      5.9143                 6.0546                 6.1481
 IR Inten    --     41.5890                 7.1643                63.3796

                     61                     62                     63
                      A                      A                      A
 Frequencies --   3089.1746              3692.8013              3717.8158
 Red. masses --      1.0884                 1.0656                 1.0655
 Frc consts  --      6.1195                 8.5615                 8.6769
 IR Inten    --     37.5268               107.6932                40.2960

                     64                     65                     66
                      A                      A                      A
 Frequencies --   3731.0706              3735.2578              3770.6921
 Red. masses --      1.0656                 1.0658                 1.0668
 Frc consts  --      8.7403                 8.7614                 8.9365
 IR Inten    --     15.8642                33.6170                28.2592

 - Thermochemistry -
 -------------------
 Temperature   298.150 Kelvin.  Pressure   1.00000 Atm.
 Atom     1 has atomic number  1 and mass   1.00783

 Molecular mass:   180.06339 amu.
 Principal axes and moments of inertia in atomic units:
                           1         2         3
     Eigenvalues --  1402.320392267.403223236.38644
           X            0.99980   0.01965   0.00394
           Y           -0.01968   0.99979   0.00580
           Z           -0.00383  -0.00588   0.99998
 This molecule is an asymmetric top.
 Rotational symmetry number  1.
 Warning -- assumption of classical behavior for rotation
           may cause significant error
 Rotational temperatures (Kelvin)      0.06176     0.03820     0.02676
 Rotational constants (GHZ):           1.28697     0.79595     0.55764
 Zero-point vibrational energy     519502.6 (Joules/Mol)
                                  124.16409 (Kcal/Mol)
 Warning -- explicit consideration of  22 degrees of freedom as
           vibrations may cause significant error
 Vibrational temperatures:     64.45   147.71   175.37   198.43   294.94
          (Kelvin)            337.70   345.61   362.88   391.37   462.34
                              535.47   566.42   595.16   608.17   615.38
                              654.62   685.22   730.82   754.28   785.36
                              820.66   889.16  1097.43  1319.88  1340.55
                             1435.76  1459.15  1496.97  1521.64  1525.12
                             1574.91  1598.97  1624.34  1641.32  1648.88
                             1670.81  1756.67  1782.18  1805.06  1810.21
                             1844.01  1852.59  1922.79  1967.58  1980.31
                             2001.01  2012.55  2034.49  2041.51  2077.57
                             2098.96  2130.70  2135.42  2239.78  4315.10
                             4332.45  4353.44  4376.44  4406.71  4434.27
                             4444.63  5313.11  5349.10  5368.17  5374.20
                             5425.18

 Zero-point correction=                           0.197868 (Hartree/Particle)
 Thermal correction to Energy=                    0.210143
 Thermal correction to Enthalpy=                  0.211087
 Thermal correction to Gibbs Free Energy=         0.160048
 Sum of electronic and zero-point Energies=           -686.943216
 Sum of electronic and thermal Energies=              -686.930941
 Sum of electronic and thermal Enthalpies=            -686.929997
 Sum of electronic and thermal Free Energies=         -686.981035

                     E (Thermal)             CV                S
                      KCal/Mol        Cal/Mol-Kelvin    Cal/Mol-Kelvin
 Total                  131.866             46.951            107.420
 Electronic               0.000              0.000              0.000
 Translational            0.889              2.981             41.471
 Rotational               0.889              2.981             30.710
 Vibrational            130.089             40.989             35.239
 Vibration     1          0.595              1.979              5.035
 Vibration     2          0.605              1.947              3.403
 Vibration     3          0.609              1.931              3.070
 Vibration     4          0.614              1.915              2.833
 Vibration     5          0.640              1.833              2.088
 Vibration     6          0.655              1.788              1.843
 Vibration     7          0.657              1.779              1.801
 Vibration     8          0.664              1.759              1.715
 Vibration     9          0.675              1.725              1.583
 Vibration    10          0.707              1.633              1.303
 Vibration    11          0.744              1.529              1.071
 Vibration    12          0.761              1.484              0.986
 Vibration    13          0.777              1.441              0.914
 Vibration    14          0.785              1.421              0.883
 Vibration    15          0.789              1.410              0.866
 Vibration    16          0.813              1.350              0.781
 Vibration    17          0.833              1.303              0.720
 Vibration    18          0.863              1.232              0.639
 Vibration    19          0.879              1.196              0.600
 Vibration    20          0.901              1.149              0.553
 Vibration    21          0.926              1.095              0.503
 Vibration    22          0.978              0.994              0.420

 Normal termination of Gaussian 09 at Tue Jun 14 01:02:10 2016.
