 Gaussian 09, Revision D.01,
 Gaussian 09:  AM64L-G09RevD.01 24-Apr-2013

 -----------------------------------------
 # opt=(MaxCycle=1000) freq B3LYP/6-31G(d)
 -----------------------------------------

 ------------------------
 boat2_Beta_B3LYP_6-31G_d
 ------------------------
 Symbolic Z-matrix:
 Charge =  0 Multiplicity = 1

 SCF Done:  E(RB3LYP) =  -687.118365359     A.U. after   14 cycles
 SCF Done:  E(RB3LYP) =  -687.128532010     A.U. after   11 cycles
 SCF Done:  E(RB3LYP) =  -687.130161933     A.U. after   12 cycles
 SCF Done:  E(RB3LYP) =  -687.130585131     A.U. after   11 cycles
 SCF Done:  E(RB3LYP) =  -687.131003627     A.U. after   12 cycles
 SCF Done:  E(RB3LYP) =  -687.132064558     A.U. after   12 cycles
 SCF Done:  E(RB3LYP) =  -686.909899165     A.U. after   15 cycles
 SCF Done:  E(RB3LYP) =  -687.126435180     A.U. after   13 cycles
 SCF Done:  E(RB3LYP) =  -687.132806782     A.U. after   11 cycles
 SCF Done:  E(RB3LYP) =  -687.133515281     A.U. after   11 cycles
 SCF Done:  E(RB3LYP) =  -687.140094240     A.U. after   11 cycles
 SCF Done:  E(RB3LYP) =  -687.140238823     A.U. after   11 cycles
 SCF Done:  E(RB3LYP) =  -687.140295149     A.U. after   11 cycles
 SCF Done:  E(RB3LYP) =  -687.140317691     A.U. after   10 cycles
 SCF Done:  E(RB3LYP) =  -687.140337204     A.U. after   10 cycles
 SCF Done:  E(RB3LYP) =  -687.140347005     A.U. after   10 cycles
 SCF Done:  E(RB3LYP) =  -687.140349450     A.U. after    8 cycles
 SCF Done:  E(RB3LYP) =  -687.140349813     A.U. after    8 cycles
 SCF Done:  E(RB3LYP) =  -687.140349388     A.U. after    7 cycles
 Optimization completed.
    -- Stationary point found.
 Normal termination of Gaussian 09 at Tue Jun 14 01:43:15 2016.

 --------------------------------------------------------------------
 #N Geom=AllCheck Guess=TCheck SCRF=Check GenChk RB3LYP/6-31G(d) Freq
 --------------------------------------------------------------------

 Structure from the checkpoint file:  "/home/iawad/scratch/MAIN/PRO_Halides/direct/optfreq/boat2_Beta/boat2_Beta_optfreq_B3LYP_6-31G_d.chk"
 ------------------------
 boat2_Beta_B3LYP_6-31G_d
 ------------------------
 Charge =  0 Multiplicity = 1

                         Standard orientation:
 ---------------------------------------------------------------------
 Center     Atomic      Atomic             Coordinates (Angstroms)
 Number     Number       Type             X           Y           Z
 ---------------------------------------------------------------------
      1          1           0        0.999284   -0.194113   -1.342821
      2          6           0        0.898107   -0.534652   -0.303168
      3          6           0       -0.777784    1.069163    0.771295
      4          6           0       -1.442450   -0.857441   -0.683296
      5          6           0       -1.533362    0.676574   -0.506444
      6          8           0       -0.220739   -1.411689   -0.191858
      7          6           0        0.717613    0.718350    0.587978
      8          1           0       -0.835863    2.154764    0.912334
      9          1           0       -1.549221   -1.115948   -1.747297
     10          1           0       -2.596680    0.925783   -0.411959
     11          1           0        1.140895    0.545651    1.586110
     12          6           0        2.147973   -1.320312    0.062059
     13          1           0        2.267177   -2.181290   -0.610045
     14          1           0        2.062205   -1.691285    1.093543
     15          8           0       -2.475285   -1.428148    0.090614
     16          1           0       -2.338871   -2.390330    0.086764
     17          8           0        3.231099   -0.394544   -0.074487
     18          1           0        4.030561   -0.790668    0.301106
     19          8           0       -1.006896    1.334892   -1.650717
     20          1           0       -0.174974    1.776847   -1.395754
     21          8           0       -1.327773    0.464769    1.927155
     22          1           0       -1.711446   -0.391300    1.664671
     23          8           0        1.346743    1.843220   -0.038926
     24          1           0        2.269171    1.573809   -0.201443
 ---------------------------------------------------------------------

 SCF Done:  E(RB3LYP) =  -687.140349389     A.U. after    1 cycles

 The electronic state is 1-A.
 Alpha  occ. eigenvalues --  -19.17597 -19.17506 -19.16604 -19.15590 -19.13924
 Alpha  occ. eigenvalues --  -19.13267 -10.29158 -10.25056 -10.24607 -10.23640
 Alpha  occ. eigenvalues --  -10.23588 -10.23433  -1.08485  -1.04670  -1.03154
 Alpha  occ. eigenvalues --   -1.01615  -1.01248  -1.00569  -0.78102  -0.76106
 Alpha  occ. eigenvalues --   -0.70333  -0.64096  -0.63024  -0.57118  -0.55555
 Alpha  occ. eigenvalues --   -0.54869  -0.53929  -0.51957  -0.48701  -0.47429
 Alpha  occ. eigenvalues --   -0.45853  -0.45365  -0.42753  -0.42645  -0.40321
 Alpha  occ. eigenvalues --   -0.39630  -0.38857  -0.38093  -0.37286  -0.36513
 Alpha  occ. eigenvalues --   -0.33119  -0.31984  -0.30449  -0.29796  -0.29013
 Alpha  occ. eigenvalues --   -0.26954  -0.25883  -0.25143
 Alpha virt. eigenvalues --    0.03900   0.06163   0.09176   0.10106   0.11637
 Alpha virt. eigenvalues --    0.12488   0.13834   0.14280   0.14566   0.16220
 Alpha virt. eigenvalues --    0.16852   0.17121   0.17987   0.19519   0.20546

 Mulliken charges:
               1
     1  H    0.146946
     2  C    0.119648
     3  C    0.099505
     4  C    0.321507
     5  C    0.077280
     6  O   -0.532641
     7  C    0.082549
     8  H    0.158693
     9  H    0.142997
    10  H    0.159798
    11  H    0.144186
    12  C   -0.058820
    13  H    0.144624
    14  H    0.143496
    15  O   -0.619059
    16  H    0.407192
    17  O   -0.638242
    18  H    0.409763
    19  O   -0.661536
    20  H    0.423398
    21  O   -0.650209
    22  H    0.413973
    23  O   -0.654743
    24  H    0.419693
 Sum of Mulliken charges =   0.00000

 Dipole moment (field-independent basis, Debye):
    X=              3.2791    Y=             -3.5499    Z=             -0.0831  Tot=              4.8333
 Quadrupole moment (field-independent basis, Debye-Ang):
   XX=            -60.3979   YY=            -66.7337   ZZ=            -77.2106
   XY=              0.1768   XZ=              3.2060   YZ=             -0.3663

  Exact polarizability:  90.944   2.042  78.647   0.422  -1.125  70.687
 Approx polarizability: 116.810   6.415 111.818  -1.978  -5.657 106.009

                      1                      2                      3
                      A                      A                      A
 Frequencies --     81.5963                91.4907               149.1185
 Red. masses --      6.4283                 5.1982                 4.1101
 Frc consts  --      0.0252                 0.0256                 0.0538
 IR Inten    --      0.4461                 2.0991                14.0617

                      4                      5                      6
                      A                      A                      A
 Frequencies --    158.4395               196.9393               231.0951
 Red. masses --      6.5573                 2.6340                 3.7687
 Frc consts  --      0.0970                 0.0602                 0.1186
 IR Inten    --      0.4743                24.9357                24.6867

                      7                      8                      9
                      A                      A                      A
 Frequencies --    232.3421               250.7880               304.2704
 Red. masses --      2.6117                 1.9458                 2.2185
 Frc consts  --      0.0831                 0.0721                 0.1210
 IR Inten    --     35.3951                36.4997                17.6231

                     10                     11                     12
                      A                      A                      A
 Frequencies --    333.0003               352.5119               372.3705
 Red. masses --      2.4499                 2.8885                 4.1823
 Frc consts  --      0.1601                 0.2115                 0.3417
 IR Inten    --     12.5099                30.2378                32.2103

                     13                     14                     15
                      A                      A                      A
 Frequencies --    389.6245               432.6860               453.5991
 Red. masses --      3.2269                 2.2845                 3.3767
 Frc consts  --      0.2886                 0.2520                 0.4093
 IR Inten    --      6.1862                48.2748                 4.0365

                     16                     17                     18
                      A                      A                      A
 Frequencies --    481.7234               501.7132               524.2736
 Red. masses --      1.7460                 1.4997                 3.0384
 Frc consts  --      0.2387                 0.2224                 0.4921
 IR Inten    --     17.4911               144.0805                21.2430

                     19                     20                     21
                      A                      A                      A
 Frequencies --    545.2179               582.7040               586.1891
 Red. masses --      3.1783                 3.3247                 1.3683
 Frc consts  --      0.5567                 0.6651                 0.2770
 IR Inten    --     32.6432                30.6333                76.5489

                     22                     23                     24
                      A                      A                      A
 Frequencies --    664.0456               821.9859               856.1519
 Red. masses --      6.0048                 4.4158                 3.2695
 Frc consts  --      1.5601                 1.7579                 1.4120
 IR Inten    --     30.8653                25.9600                 9.7739

                     25                     26                     27
                      A                      A                      A
 Frequencies --    902.4735               962.2547              1025.8630
 Red. masses --      2.1420                 2.4968                 2.9119
 Frc consts  --      1.0279                 1.3621                 1.8055
 IR Inten    --      9.7288                25.3817                81.5664

                     28                     29                     30
                      A                      A                      A
 Frequencies --   1058.7313              1081.3723              1083.1313
 Red. masses --      4.9229                 3.2723                 3.3251
 Frc consts  --      3.2512                 2.2545                 2.2984
 IR Inten    --     46.7329                73.5280                14.0943

                     31                     32                     33
                      A                      A                      A
 Frequencies --   1099.2821              1105.3985              1109.0489
 Red. masses --      5.0398                 3.3334                 3.5658
 Frc consts  --      3.5882                 2.3998                 2.5841
 IR Inten    --     62.6034               126.7486               171.4902

                     34                     35                     36
                      A                      A                      A
 Frequencies --   1120.8781              1132.6694              1143.7236
 Red. masses --      2.5699                 2.8192                 2.9031
 Frc consts  --      1.9023                 2.1310                 2.2374
 IR Inten    --     26.3305                52.2030                47.9797

                     37                     38                     39
                      A                      A                      A
 Frequencies --   1218.8189              1242.8577              1254.4303
 Red. masses --      1.2454                 1.1680                 1.1880
 Frc consts  --      1.0901                 1.0630                 1.1015
 IR Inten    --     27.3034                70.8660                18.3356

                     40                     41                     42
                      A                      A                      A
 Frequencies --   1266.8079              1297.7262              1312.4253
 Red. masses --      1.1878                 1.3142                 1.2336
 Frc consts  --      1.1231                 1.3040                 1.2519
 IR Inten    --     37.5119                25.2459                33.2975

                     43                     44                     45
                      A                      A                      A
 Frequencies --   1339.8881              1360.1593              1369.3631
 Red. masses --      1.2293                 1.2377                 1.2838
 Frc consts  --      1.3003                 1.3491                 1.4184
 IR Inten    --      6.2003                 1.7916                 2.5072

                     46                     47                     48
                      A                      A                      A
 Frequencies --   1376.8465              1410.5126              1426.1797
 Red. masses --      1.2473                 1.3440                 1.4050
 Frc consts  --      1.3931                 1.5754                 1.6837
 IR Inten    --     19.0553                39.8616                10.5467

                     49                     50                     51
                      A                      A                      A
 Frequencies --   1437.7146              1458.7193              1473.5319
 Red. masses --      1.4078                 1.6048                 1.3388
 Frc consts  --      1.7145                 2.0119                 1.7127
 IR Inten    --      1.8829                32.4678                88.2614

                     52                     53                     54
                      A                      A                      A
 Frequencies --   1482.7183              1490.8067              1554.0953
 Red. masses --      1.4719                 1.2781                 1.0871
 Frc consts  --      1.9065                 1.6737                 1.5469
 IR Inten    --     41.2199                32.6739                 3.2907

                     55                     56                     57
                      A                      A                      A
 Frequencies --   3021.8087              3026.3580              3035.4156
 Red. masses --      1.0568                 1.0857                 1.0836
 Frc consts  --      5.6858                 5.8586                 5.8827
 IR Inten    --     35.6540                61.5912                11.2514

                     58                     59                     60
                      A                      A                      A
 Frequencies --   3050.1161              3068.7482              3071.2886
 Red. masses --      1.0872                 1.1072                 1.0862
 Frc consts  --      5.9593                 6.1435                 6.0366
 IR Inten    --     31.6434                72.0467                28.3842

                     61                     62                     63
                      A                      A                      A
 Frequencies --   3079.2066              3636.9290              3671.3123
 Red. masses --      1.0876                 1.0678                 1.0666
 Frc consts  --      6.0755                 8.3220                 8.4706
 IR Inten    --     32.3732               148.6392               125.0830

                     64                     65                     66
                      A                      A                      A
 Frequencies --   3691.0385              3729.8210              3776.0213
 Red. masses --      1.0656                 1.0655                 1.0668
 Frc consts  --      8.5532                 8.7334                 8.9622
 IR Inten    --     62.7010                24.2831                33.8562

 - Thermochemistry -
 -------------------
 Temperature   298.150 Kelvin.  Pressure   1.00000 Atm.
 Atom     1 has atomic number  1 and mass   1.00783

 Molecular mass:   180.06339 amu.
 Principal axes and moments of inertia in atomic units:
                           1         2         3
     Eigenvalues --  1352.219722365.702422719.16760
           X            0.99988  -0.01458   0.00592
           Y            0.01457   0.99989   0.00218
           Z           -0.00596  -0.00209   0.99998
 This molecule is an asymmetric top.
 Rotational symmetry number  1.
 Warning -- assumption of classical behavior for rotation
           may cause significant error
 Rotational temperatures (Kelvin)      0.06405     0.03661     0.03185
 Rotational constants (GHZ):           1.33465     0.76288     0.66371
 Zero-point vibrational energy     520676.8 (Joules/Mol)
                                  124.44475 (Kcal/Mol)
 Warning -- explicit consideration of  21 degrees of freedom as
           vibrations may cause significant error
 Vibrational temperatures:    117.40   131.63   214.55   227.96   283.35
          (Kelvin)            332.49   334.29   360.83   437.78   479.11
                              507.19   535.76   560.58   622.54   652.63
                              693.09   721.85   754.31   784.45   838.38
                              843.39   955.41  1182.65  1231.81  1298.46
                             1384.47  1475.99  1523.28  1555.85  1558.38
                             1581.62  1590.42  1595.67  1612.69  1629.66
                             1645.56  1753.61  1788.19  1804.84  1822.65
                             1867.14  1888.28  1927.80  1956.96  1970.21
                             1980.97  2029.41  2051.95  2068.55  2098.77
                             2120.08  2133.30  2144.94  2235.99  4347.70
                             4354.25  4367.28  4388.43  4415.24  4418.89
                             4430.29  5232.72  5282.19  5310.57  5366.37
                             5432.85

 Zero-point correction=                           0.198315 (Hartree/Particle)
 Thermal correction to Energy=                    0.210341
 Thermal correction to Enthalpy=                  0.211286
 Thermal correction to Gibbs Free Energy=         0.161248
 Sum of electronic and zero-point Energies=           -686.942034
 Sum of electronic and thermal Energies=              -686.930008
 Sum of electronic and thermal Enthalpies=            -686.929064
 Sum of electronic and thermal Free Energies=         -686.979101

                     E (Thermal)             CV                S
                      KCal/Mol        Cal/Mol-Kelvin    Cal/Mol-Kelvin
 Total                  131.991             46.502            105.312
 Electronic               0.000              0.000              0.000
 Translational            0.889              2.981             41.471
 Rotational               0.889              2.981             30.543
 Vibrational            130.214             40.540             33.298
 Vibration     1          0.600              1.962              3.852
 Vibration     2          0.602              1.955              3.628
 Vibration     3          0.618              1.904              2.683
 Vibration     4          0.621              1.893              2.568
 Vibration     5          0.636              1.844              2.162
 Vibration     6          0.653              1.793              1.870
 Vibration     7          0.653              1.791              1.861
 Vibration     8          0.663              1.761              1.725
 Vibration     9          0.695              1.666              1.393
 Vibration    10          0.715              1.610              1.245
 Vibration    11          0.729              1.570              1.155
 Vibration    12          0.744              1.529              1.070
 Vibration    13          0.758              1.492              1.002
 Vibration    14          0.794              1.399              0.850
 Vibration    15          0.812              1.353              0.785
 Vibration    16          0.838              1.291              0.705
 Vibration    17          0.857              1.246              0.654
 Vibration    18          0.879              1.196              0.600
 Vibration    19          0.900              1.150              0.554
 Vibration    20          0.940              1.069              0.480
 Vibration    21          0.943              1.061              0.474

 Optimization completed.
    -- Stationary point found.
 Normal termination of Gaussian 09 at Tue Jun 14 01:57:06 2016.
