 Gaussian 09, Revision E.01,
 Gaussian 09:  ES64L-G09RevE.01 30-Nov-2015

 --------------------------------------------------
 # b3lyp/6-31g(d) irc=(calcfc,forward,maxpoints=20)
 --------------------------------------------------

 -------------------------------------------
 ./5/glo_1w_alpha_boat5_b3lyp_631Gd_iopt.out
 -------------------------------------------
 Symbolic Z-matrix:
 Charge =  0 Multiplicity = 1

 SCF Done:  E(RB3LYP) =  -839.986361019     A.U. after   14 cycles
 SCF Done:  E(RB3LYP) =  -839.986367272     A.U. after   10 cycles

                          Input orientation:
 ---------------------------------------------------------------------
 Center     Atomic      Atomic             Coordinates (Angstroms)
 Number     Number       Type             X           Y           Z
 ---------------------------------------------------------------------
      1          8           0       -1.535422   -0.409082   -0.692254
      2          6           0       -0.248637    0.842001    1.039980
      3          6           0        0.893883   -0.367699   -0.926117
      4          6           0        1.093586    0.492821    0.333552
      5          6           0       -0.363698   -1.225108   -0.793436
      6          6           0       -1.446538    0.817299    0.080796
      7          1           0        1.683402   -0.076198    1.063444
      8          1           0       -2.353181    0.840263    0.700159
      9          1           0       -0.187265    1.862470    1.434937
     10          1           0        0.728591    0.306337   -1.772281
     11          6           0       -1.486273    2.020555   -0.877160
     12          1           0       -2.265788    1.844972   -1.632636
     13          1           0       -0.532142    2.139813   -1.396170
     14          8           0       -1.689194    3.238253   -0.169888
     15          1           0       -2.591602    3.229530    0.186206
     16          8           0        2.027711   -1.132824   -1.278623
     17          1           0        2.346212   -1.599308   -0.486216
     18          8           0        1.833177    1.640398   -0.096571
     19          1           0        1.963600    2.215396    0.674708
     20          8           0       -0.467278   -0.003706    2.158436
     21          1           0       -0.402155   -0.915938    1.807901
     22          1           0       -0.518020   -1.815963   -1.701884
     23          8           0       -0.220874   -2.079451    0.323383
     24          1           0       -1.033653   -2.641031    0.341137
     25          8           0        4.147367   -0.475625    0.429780
     26          1           0        4.502556    0.119830    1.106865
     27          1           0        3.719413    0.114241   -0.214695
     28          8           0       -2.860602   -2.780140    0.126618
     29          1           0       -3.289574   -2.703766    0.992895
     30          1           0       -2.821929   -1.862702   -0.212776
 ---------------------------------------------------------------------

 Alpha  occ. eigenvalues --  -19.17838 -19.16870 -19.16576 -19.16491 -19.15983
 Alpha  occ. eigenvalues --  -19.14796 -19.13710 -19.13616 -10.29516 -10.25062
 Alpha  occ. eigenvalues --  -10.24473 -10.24433 -10.24345 -10.24022  -1.08257
 Alpha  occ. eigenvalues --   -1.04008  -1.03221  -1.02543  -1.02194  -1.01201
 Alpha  occ. eigenvalues --   -1.01062  -0.99410  -0.78414  -0.77238  -0.69238
 Alpha  occ. eigenvalues --   -0.66023  -0.63768  -0.58772  -0.55610  -0.54293
 Alpha  occ. eigenvalues --   -0.53928  -0.52440  -0.51693  -0.50809  -0.49044
 Alpha  occ. eigenvalues --   -0.48891  -0.46353  -0.45068  -0.43532  -0.42573
 Alpha  occ. eigenvalues --   -0.41968  -0.41749  -0.39839  -0.38989  -0.37805
 Alpha  occ. eigenvalues --   -0.37057  -0.36207  -0.35509  -0.34342  -0.32376
 Alpha  occ. eigenvalues --   -0.31898  -0.30690  -0.30371  -0.29788  -0.29113
 Alpha  occ. eigenvalues --   -0.27619  -0.26453  -0.25644
 Alpha virt. eigenvalues --    0.04500   0.04859   0.05758   0.08174   0.09495
 Alpha virt. eigenvalues --    0.09741   0.11247   0.12422   0.13281   0.13940
 Alpha virt. eigenvalues --    0.14117   0.15470   0.16240   0.18041   0.18142

 Mulliken charges:
               1
     1  O   -0.542162
     2  C    0.103775
     3  C    0.115208
     4  C    0.058694
     5  C    0.292255
     6  C    0.095526
     7  H    0.153901
     8  H    0.126752
     9  H    0.148563
    10  H    0.163360
    11  C   -0.064727
    12  H    0.139091
    13  H    0.175547
    14  O   -0.610245
    15  H    0.392599
    16  O   -0.632437
    17  H    0.419188
    18  O   -0.639681
    19  H    0.397637
    20  O   -0.665606
    21  H    0.411692
    22  H    0.158979
    23  O   -0.662003
    24  H    0.432178
    25  O   -0.796717
    26  H    0.385488
    27  H    0.413382
    28  O   -0.795306
    29  H    0.402319
    30  H    0.422750
 Sum of Mulliken charges =  -0.00000

 Dipole moment (field-independent basis, Debye):
    X=             -2.9445    Y=              1.8718    Z=              1.8613  Tot=              3.9545
 Quadrupole moment (field-independent basis, Debye-Ang):
   XX=            -75.4191   YY=            -88.3202   ZZ=            -86.6046
   XY=              5.5998   XZ=              3.3930   YZ=             -0.4326

  Exact polarizability:   0.000   0.000   0.000   0.000   0.000   0.000
 Approx polarizability: 126.136  -1.652 132.942  -1.326   1.684 125.294

 Normal termination of Gaussian 09 at Tue Jan 31 12:09:38 2017.
