 Gaussian 09, Revision E.01,
 Gaussian 09:  ES64L-G09RevE.01 30-Nov-2015

 --------------------------------------------------
 # b3lyp/6-31g(d) irc=(calcfc,reverse,maxpoints=20)
 --------------------------------------------------

 ------------------------------------------
 ./5/glo_2w_beta_boat5_b3lyp_631Gd_iopt.out
 ------------------------------------------
 Symbolic Z-matrix:
 Charge =  0 Multiplicity = 1

 SCF Done:  E(RB3LYP) =  -839.992002265     A.U. after   14 cycles
 SCF Done:  E(RB3LYP) =  -839.992005544     A.U. after   11 cycles
 SCF Done:  E(RB3LYP) =  -839.992006480     A.U. after    9 cycles
 SCF Done:  E(RB3LYP) =  -839.992006638     A.U. after    9 cycles

                          Input orientation:
 ---------------------------------------------------------------------
 Center     Atomic      Atomic             Coordinates (Angstroms)
 Number     Number       Type             X           Y           Z
 ---------------------------------------------------------------------
      1          8           0        0.460890   -0.737325   -0.739222
      2          6           0       -1.199155   -0.379541    1.047062
      3          6           0       -0.189001    1.590968   -0.220674
      4          6           0       -1.336278    1.117206    0.697219
      5          6           0        0.948132    0.574413   -0.312971
      6          6           0       -0.774016   -1.204230   -0.166514
      7          1           0       -1.273310    1.702577    1.629141
      8          1           0       -0.587635   -2.228967    0.187424
      9          1           0       -2.173439   -0.755468    1.391689
     10          1           0       -0.600610    1.726479   -1.231052
     11          6           0       -1.837587   -1.234965   -1.279730
     12          1           0       -1.516922   -1.940835   -2.057113
     13          1           0       -1.923428   -0.247825   -1.733851
     14          1           0        1.410065    0.452622    0.672285
     15          8           0        1.863757    1.021775   -1.240894
     16          1           0        2.746096    0.641826   -0.990476
     17          8           0       -3.140096   -1.548963   -0.784759
     18          1           0       -3.155750   -2.486078   -0.534976
     19          8           0        0.329916    2.809101    0.287641
     20          1           0        1.104806    3.009459   -0.265828
     21          8           0       -2.575362    1.383134    0.046974
     22          1           0       -3.194072    0.654016    0.217884
     23          8           0       -0.211361   -0.615206    2.057387
     24          1           0       -0.396633   -0.023658    2.804215
     25          8           0        4.075231   -0.233753   -0.249449
     26          1           0        3.603726   -0.960771    0.230705
     27          1           0        4.593114   -0.688572   -0.930622
     28          8           0        2.346909   -2.123551    0.736558
     29          1           0        1.903871   -1.847019    1.556358
     30          1           0        1.714623   -1.818998    0.047389
 ---------------------------------------------------------------------

 Alpha  occ. eigenvalues --  -19.17895 -19.17161 -19.16846 -19.15089 -19.15073
 Alpha  occ. eigenvalues --  -19.14647 -19.14100 -19.14044 -10.27998 -10.26058
 Alpha  occ. eigenvalues --  -10.25692 -10.24831 -10.24419 -10.23302  -1.07119
 Alpha  occ. eigenvalues --   -1.04769  -1.03993  -1.02745  -1.01574  -1.01165
 Alpha  occ. eigenvalues --   -1.00397  -0.99178  -0.79011  -0.76542  -0.69727
 Alpha  occ. eigenvalues --   -0.66051  -0.63198  -0.56575  -0.55764  -0.54183
 Alpha  occ. eigenvalues --   -0.53461  -0.52897  -0.52409  -0.51797  -0.51118
 Alpha  occ. eigenvalues --   -0.48199  -0.47000  -0.44223  -0.43367  -0.42493
 Alpha  occ. eigenvalues --   -0.41808  -0.40978  -0.39980  -0.39244  -0.38816
 Alpha  occ. eigenvalues --   -0.37211  -0.35821  -0.35198  -0.33777  -0.32319
 Alpha  occ. eigenvalues --   -0.31257  -0.30851  -0.29872  -0.29502  -0.29097
 Alpha  occ. eigenvalues --   -0.27741  -0.27177  -0.25207
 Alpha virt. eigenvalues --    0.03564   0.04680   0.06510   0.08242   0.09695
 Alpha virt. eigenvalues --    0.10615   0.11323   0.11603   0.12149   0.14041
 Alpha virt. eigenvalues --    0.14839   0.16604   0.17546   0.18289   0.19720

 Mulliken charges:
               1
     1  O   -0.549470
     2  C    0.059958
     3  C    0.117091
     4  C    0.119176
     5  C    0.313198
     6  C    0.109534
     7  H    0.136790
     8  H    0.131645
     9  H    0.132862
    10  H    0.153727
    11  C   -0.072424
    12  H    0.148847
    13  H    0.188005
    14  H    0.125129
    15  O   -0.658270
    16  H    0.440821
    17  O   -0.621128
    18  H    0.398138
    19  O   -0.645410
    20  H    0.404497
    21  O   -0.641762
    22  H    0.412588
    23  O   -0.642054
    24  H    0.405430
    25  O   -0.820666
    26  H    0.432867
    27  H    0.397455
    28  O   -0.829326
    29  H    0.411140
    30  H    0.441610
 Sum of Mulliken charges =  -0.00000

 Dipole moment (field-independent basis, Debye):
    X=             -1.1316    Y=             -3.5054    Z=              1.6063  Tot=              4.0185
 Quadrupole moment (field-independent basis, Debye-Ang):
   XX=            -84.0370   YY=            -86.9311   ZZ=            -77.6809
   XY=              7.5653   XZ=             -7.4293   YZ=              2.1817

  Exact polarizability:   0.000   0.000   0.000   0.000   0.000   0.000
 Approx polarizability: 136.381   4.573 128.355  -3.308  -1.869 122.851

 Normal termination of Gaussian 09 at Tue Jan 31 13:58:33 2017.
