 Gaussian 09, Revision E.01,
 Gaussian 09:  ES64L-G09RevE.01 30-Nov-2015

 --------------------------------------------------
 # b3lyp/6-31g(d) irc=(calcfc,forward,maxpoints=20)
 --------------------------------------------------

 ------------------------------------------
 ./5/glo_2w_beta_boat5_b3lyp_631Gd_iopt.out
 ------------------------------------------
 Symbolic Z-matrix:
 Charge =  0 Multiplicity = 1

 SCF Done:  E(RB3LYP) =  -839.992002265     A.U. after   14 cycles
 SCF Done:  E(RB3LYP) =  -839.992006262     A.U. after   10 cycles
 SCF Done:  E(RB3LYP) =  -839.992007269     A.U. after    9 cycles
 SCF Done:  E(RB3LYP) =  -839.992007384     A.U. after    9 cycles

                          Input orientation:
 ---------------------------------------------------------------------
 Center     Atomic      Atomic             Coordinates (Angstroms)
 Number     Number       Type             X           Y           Z
 ---------------------------------------------------------------------
      1          8           0        0.458483   -0.734599   -0.740964
      2          6           0       -1.200902   -0.377825    1.045914
      3          6           0       -0.187358    1.593362   -0.218889
      4          6           0       -1.333428    1.120603    0.699379
      5          6           0        0.947839    0.574795   -0.312441
      6          6           0       -0.776625   -1.201879   -0.167898
      7          1           0       -1.269249    1.703744    1.633018
      8          1           0       -0.589859   -2.226742    0.185632
      9          1           0       -2.176552   -0.753272    1.387672
     10          1           0       -0.599640    1.728788   -1.229046
     11          6           0       -1.842097   -1.233627   -1.279052
     12          1           0       -1.512798   -1.926714   -2.064469
     13          1           0       -1.942938   -0.242692   -1.721277
     14          1           0        1.409663    0.451146    0.672707
     15          8           0        1.864118    1.022836   -1.239622
     16          1           0        2.746152    0.641996   -0.989534
     17          8           0       -3.137678   -1.571678   -0.783062
     18          1           0       -3.141246   -2.514676   -0.556131
     19          8           0        0.333231    2.810982    0.288532
     20          1           0        1.108507    3.009354   -0.265145
     21          8           0       -2.567371    1.390157    0.041461
     22          1           0       -3.216533    0.709260    0.282227
     23          8           0       -0.214787   -0.616461    2.057549
     24          1           0       -0.398654   -0.024413    2.804335
     25          8           0        4.074931   -0.234603   -0.249371
     26          1           0        3.602446   -0.961306    0.230308
     27          1           0        4.591896   -0.689689   -0.931067
     28          8           0        2.344428   -2.123320    0.734772
     29          1           0        1.900559   -1.847810    1.554475
     30          1           0        1.712374   -1.818738    0.045397
 ---------------------------------------------------------------------

 Alpha  occ. eigenvalues --  -19.17866 -19.16913 -19.16799 -19.15254 -19.15062
 Alpha  occ. eigenvalues --  -19.14636 -19.14107 -19.14027 -10.27986 -10.26004
 Alpha  occ. eigenvalues --  -10.25600 -10.24881 -10.24243 -10.23335  -1.07084
 Alpha  occ. eigenvalues --   -1.04740  -1.03782  -1.02854  -1.01596  -1.01151
 Alpha  occ. eigenvalues --   -1.00386  -0.99159  -0.78971  -0.76541  -0.69612
 Alpha  occ. eigenvalues --   -0.66044  -0.63133  -0.56494  -0.55719  -0.54144
 Alpha  occ. eigenvalues --   -0.53483  -0.52946  -0.52380  -0.51755  -0.51033
 Alpha  occ. eigenvalues --   -0.48172  -0.46992  -0.44137  -0.43230  -0.42413
 Alpha  occ. eigenvalues --   -0.41849  -0.40962  -0.39968  -0.39221  -0.38799
 Alpha  occ. eigenvalues --   -0.37209  -0.35693  -0.35159  -0.33694  -0.32444
 Alpha  occ. eigenvalues --   -0.31209  -0.30751  -0.29869  -0.29489  -0.29025
 Alpha  occ. eigenvalues --   -0.27783  -0.27157  -0.25196
 Alpha virt. eigenvalues --    0.03661   0.04752   0.06533   0.08100   0.09512
 Alpha virt. eigenvalues --    0.10634   0.11360   0.11602   0.12291   0.14107
 Alpha virt. eigenvalues --    0.14886   0.16641   0.17600   0.18346   0.19741

 Mulliken charges:
               1
     1  O   -0.549481
     2  C    0.063272
     3  C    0.116971
     4  C    0.116592
     5  C    0.313491
     6  C    0.109075
     7  H    0.135883
     8  H    0.130972
     9  H    0.132469
    10  H    0.154627
    11  C   -0.069597
    12  H    0.147208
    13  H    0.187934
    14  H    0.124791
    15  O   -0.658481
    16  H    0.440800
    17  O   -0.621016
    18  H    0.397041
    19  O   -0.645418
    20  H    0.404604
    21  O   -0.637126
    22  H    0.409431
    23  O   -0.642283
    24  H    0.404991
    25  O   -0.820655
    26  H    0.432934
    27  H    0.397446
    28  O   -0.829279
    29  H    0.411199
    30  H    0.441604
 Sum of Mulliken charges =  -0.00000

 Dipole moment (field-independent basis, Debye):
    X=             -1.1852    Y=             -3.3872    Z=              1.6822  Tot=              3.9633
 Quadrupole moment (field-independent basis, Debye-Ang):
   XX=            -83.7400   YY=            -86.8907   ZZ=            -77.6531
   XY=              7.0357   XZ=             -7.7386   YZ=              2.3249

  Exact polarizability:   0.000   0.000   0.000   0.000   0.000   0.000
 Approx polarizability: 136.547   4.555 128.056  -3.465  -2.015 122.977

 Normal termination of Gaussian 09 at Tue Jan 31 12:23:22 2017.
