 Gaussian 09, Revision E.01,
 Gaussian 09:  ES64L-G09RevE.01 30-Nov-2015

 -----------------------------------------
 # opt=(MaxCycle=1000) freq B3LYP/6-31G(d)
 -----------------------------------------

 --------------------------------------------------
 ./chairs/1/glo_1w_alpha_ircf_chair_B3LYP_631Gd.out
 --------------------------------------------------
 Symbolic Z-matrix:
 Charge =  0 Multiplicity = 1

 SCF Done:  E(RB3LYP) =  -839.989028311     A.U. after   14 cycles
 Optimization completed.
    -- Stationary point found.
 Normal termination of Gaussian 09 at Sun Jan 15 12:31:06 2017.

 --------------------------------------------------------------------
 #N Geom=AllCheck Guess=TCheck SCRF=Check GenChk RB3LYP/6-31G(d) Freq
 --------------------------------------------------------------------

 Structure from the checkpoint file:  "/scratch/10462972.yak.local/Gau-14193.chk"
 --------------------------------------------------
 ./chairs/1/glo_1w_alpha_ircf_chair_B3LYP_631Gd.out
 --------------------------------------------------
 Charge =  0 Multiplicity = 1

                         Standard orientation:
 ---------------------------------------------------------------------
 Center     Atomic      Atomic             Coordinates (Angstroms)
 Number     Number       Type             X           Y           Z
 ---------------------------------------------------------------------
      1          6           0       -1.319398   -1.954288    0.062950
      2          8           0       -1.652728    0.270651   -1.010184
      3          1           0       -4.587409   -0.500391    0.464829
      4          8           0       -3.767947   -0.043895    0.707069
      5          1           0       -2.541097    0.272049   -0.578337
      6          6           0        0.063304   -1.908406   -0.574775
      7          6           0        0.971846   -0.812925    0.014634
      8          6           0        0.639384    0.625987   -0.433981
      9          6           0       -0.808761    1.094367   -0.209133
     10          1           0       -0.059419   -1.739747   -1.655013
     11          1           0        0.888543    0.716261   -1.496298
     12          1           0       -1.054176    0.976313    0.858666
     13          1           0        0.901096   -0.870066    1.111891
     14          8           0        0.631601   -3.185721   -0.325273
     15          8           0        2.274908   -1.174937   -0.428502
     16          8           0        1.544014    1.549750    0.235370
     17          1           0        2.955952   -0.738736    0.134398
     18          1           0        1.593227   -3.026810   -0.398945
     19          1           0        1.251092    1.609411    1.162407
     20          6           0       -1.047183    2.566992   -0.597846
     21          8           0       -0.395466    3.505895    0.242773
     22          1           0       -2.120488    2.762665   -0.507774
     23          1           0       -0.774792    2.701544   -1.656808
     24          1           0        0.555067    3.384145    0.087043
     25          1           0       -2.118831   -2.359663   -0.586776
     26          8           0       -1.547943   -1.667732    1.226880
     27          1           0       -3.227231   -0.711667    1.179165
     28          8           0        4.063676    0.510938    0.807394
     29          1           0        4.777491    0.604808    0.157805
     30          1           0        3.364892    1.129919    0.508444
 ---------------------------------------------------------------------

 SCF Done:  E(RB3LYP) =  -839.989028311     A.U. after    1 cycles

 The electronic state is 1-A.
 Alpha  occ. eigenvalues --  -19.19535 -19.16740 -19.16436 -19.16318 -19.15527
 Alpha  occ. eigenvalues --  -19.14646 -19.14133 -19.13923 -10.29152 -10.25660
 Alpha  occ. eigenvalues --  -10.24677 -10.24607 -10.24261 -10.23037  -1.06622
 Alpha  occ. eigenvalues --   -1.06074  -1.03491  -1.02989  -1.02150  -1.01892
 Alpha  occ. eigenvalues --   -1.01211  -0.99958  -0.78556  -0.74507  -0.69437
 Alpha  occ. eigenvalues --   -0.64705  -0.61706  -0.56919  -0.55264  -0.54951
 Alpha  occ. eigenvalues --   -0.54452  -0.52767  -0.51911  -0.50032  -0.49637
 Alpha  occ. eigenvalues --   -0.47893  -0.47114  -0.44231  -0.43983  -0.42894
 Alpha  occ. eigenvalues --   -0.42284  -0.40829  -0.40204  -0.39798  -0.38144
 Alpha  occ. eigenvalues --   -0.37854  -0.36055  -0.35590  -0.35289  -0.33669
 Alpha  occ. eigenvalues --   -0.32373  -0.31644  -0.31018  -0.29792  -0.27811
 Alpha  occ. eigenvalues --   -0.27448  -0.25935  -0.25356
 Alpha virt. eigenvalues --   -0.03465   0.03268   0.05145   0.07263   0.09191
 Alpha virt. eigenvalues --    0.10703   0.11322   0.12690   0.13229   0.14035
 Alpha virt. eigenvalues --    0.15584   0.16253   0.16874   0.16978   0.18364

 Mulliken charges:
               1
     1  C    0.276514
     2  O   -0.670518
     3  H    0.403595
     4  O   -0.804686
     5  H    0.440765
     6  C    0.121072
     7  C    0.084375
     8  C    0.112898
     9  C    0.074922
    10  H    0.133976
    11  H    0.159794
    12  H    0.135678
    13  H    0.136202
    14  O   -0.655311
    15  O   -0.697302
    16  O   -0.659289
    17  H    0.429662
    18  H    0.418929
    19  H    0.410866
    20  C   -0.043665
    21  O   -0.629529
    22  H    0.155141
    23  H    0.127376
    24  H    0.399340
    25  H    0.122746
    26  O   -0.441478
    27  H    0.432236
    28  O   -0.797872
    29  H    0.401847
    30  H    0.421717
 Sum of Mulliken charges =   0.00000

 Dipole moment (field-independent basis, Debye):
    X=             -0.0238    Y=              0.5398    Z=             -1.3491  Tot=              1.4533
 Quadrupole moment (field-independent basis, Debye-Ang):
   XX=            -64.0140   YY=            -97.1286   ZZ=            -87.0097
   XY=             11.8557   XZ=             -1.7141   YZ=             -0.7857

  Exact polarizability: 111.790   0.797 100.643   0.069   1.554  79.214
 Approx polarizability: 140.109   0.714 128.590  -0.941   4.544 131.834

                      1                      2                      3
                      A                      A                      A
 Frequencies --     34.7332                61.3412                67.1851
 Red. masses --      5.8749                 6.9915                 5.1019
 Frc consts  --      0.0042                 0.0155                 0.0136
 IR Inten    --      1.7607                 1.2128                 4.3689

                      4                      5                      6
                      A                      A                      A
 Frequencies --     78.4531               111.5662               133.4305
 Red. masses --      5.2463                 6.8174                 3.3159
 Frc consts  --      0.0190                 0.0500                 0.0348
 IR Inten    --      6.5629                 1.4908                10.7898

                      7                      8                      9
                      A                      A                      A
 Frequencies --    139.7461               149.4864               165.3801
 Red. masses --      5.2264                 5.4609                 3.1598
 Frc consts  --      0.0601                 0.0719                 0.0509
 IR Inten    --      3.6290                 6.7014                35.3506

                     10                     11                     12
                      A                      A                      A
 Frequencies --    169.7091               188.9966               223.4519
 Red. masses --      5.8888                 3.8428                 1.6087
 Frc consts  --      0.0999                 0.0809                 0.0473
 IR Inten    --      9.5307                13.7017               169.7988

                     13                     14                     15
                      A                      A                      A
 Frequencies --    234.3007               239.3577               254.8345
 Red. masses --      5.2852                 3.4495                 3.5144
 Frc consts  --      0.1709                 0.1164                 0.1345
 IR Inten    --      6.6813                35.9559                18.7394

                     16                     17                     18
                      A                      A                      A
 Frequencies --    276.3361               297.8300               331.1415
 Red. masses --      1.3466                 2.6257                 2.5434
 Frc consts  --      0.0606                 0.1372                 0.1643
 IR Inten    --     97.5827               119.8680                30.8178

                     19                     20                     21
                      A                      A                      A
 Frequencies --    348.1938               350.4425               392.4353
 Red. masses --      2.1940                 2.6568                 3.1757
 Frc consts  --      0.1567                 0.1922                 0.2882
 IR Inten    --    153.3136                43.7325                44.3268

                     22                     23                     24
                      A                      A                      A
 Frequencies --    394.6588               416.5308               422.5403
 Red. masses --      3.7662                 1.3992                 2.3325
 Frc consts  --      0.3456                 0.1430                 0.2454
 IR Inten    --     34.2363                25.1373                77.4693

                     25                     26                     27
                      A                      A                      A
 Frequencies --    440.4412               471.8286               492.7650
 Red. masses --      1.5506                 3.7741                 1.3944
 Frc consts  --      0.1772                 0.4950                 0.1995
 IR Inten    --     20.1078                24.7797                78.3872

                     28                     29                     30
                      A                      A                      A
 Frequencies --    529.2332               566.6444               579.3150
 Red. masses --      2.0478                 5.1795                 1.9591
 Frc consts  --      0.3379                 0.9798                 0.3874
 IR Inten    --     64.9395                27.4608               102.2114

                     31                     32                     33
                      A                      A                      A
 Frequencies --    600.6654               648.2839               668.0657
 Red. masses --      1.4274                 1.0679                 1.1017
 Frc consts  --      0.3034                 0.2644                 0.2897
 IR Inten    --     39.0580               267.8456                60.1241

                     34                     35                     36
                      A                      A                      A
 Frequencies --    726.4241               884.0801               898.7742
 Red. masses --      4.0166                 1.1444                 1.4647
 Frc consts  --      1.2488                 0.5270                 0.6971
 IR Inten    --     32.8514               100.0948                54.9786

                     37                     38                     39
                      A                      A                      A
 Frequencies --    911.3409               939.2897               983.8148
 Red. masses --      1.2459                 2.2748                 2.1615
 Frc consts  --      0.6097                 1.1825                 1.2326
 IR Inten    --    138.5138                16.8126                46.3084

                     40                     41                     42
                      A                      A                      A
 Frequencies --   1001.4672              1033.2902              1072.0375
 Red. masses --      3.8908                 4.7510                 2.6003
 Frc consts  --      2.2991                 2.9887                 1.7607
 IR Inten    --     85.4561                33.5020                45.5166

                     43                     44                     45
                      A                      A                      A
 Frequencies --   1078.6781              1092.5024              1102.4493
 Red. masses --      4.4099                 5.4780                 4.5280
 Frc consts  --      3.0232                 3.8522                 3.2425
 IR Inten    --     47.1959               108.6630                18.9910

                     46                     47                     48
                      A                      A                      A
 Frequencies --   1112.9231              1117.2400              1127.1150
 Red. masses --      3.0983                 2.9420                 2.6545
 Frc consts  --      2.2610                 2.1637                 1.9869
 IR Inten    --     61.4435                 4.8380                12.9921

                     49                     50                     51
                      A                      A                      A
 Frequencies --   1213.9941              1235.2630              1271.1113
 Red. masses --      1.1951                 1.2133                 1.2409
 Frc consts  --      1.0377                 1.0907                 1.1813
 IR Inten    --     35.8268                13.4911                27.5304

                     52                     53                     54
                      A                      A                      A
 Frequencies --   1294.0432              1313.5396              1344.2728
 Red. masses --      1.1666                 1.1277                 1.1944
 Frc consts  --      1.1510                 1.1464                 1.2716
 IR Inten    --     34.8953                31.9672                10.8509

                     55                     56                     57
                      A                      A                      A
 Frequencies --   1385.9754              1397.4790              1408.0321
 Red. masses --      1.1798                 1.2796                 1.2615
 Frc consts  --      1.3353                 1.4724                 1.4735
 IR Inten    --      8.2964                19.0913                 5.8454

                     58                     59                     60
                      A                      A                      A
 Frequencies --   1411.5471              1430.9844              1437.5550
 Red. masses --      1.3618                 1.2062                 1.2335
 Frc consts  --      1.5986                 1.4552                 1.5019
 IR Inten    --     17.5752                34.8941                 9.9176

                     61                     62                     63
                      A                      A                      A
 Frequencies --   1454.0141              1472.9220              1490.2801
 Red. masses --      1.2326                 1.6111                 1.2582
 Frc consts  --      1.5354                 2.0594                 1.6465
 IR Inten    --     85.6844                32.0471                62.8417

                     64                     65                     66
                      A                      A                      A
 Frequencies --   1507.0689              1529.7038              1715.3906
 Red. masses --      1.2959                 1.1134                 1.0910
 Frc consts  --      1.7341                 1.5350                 1.8915
 IR Inten    --     20.9850                 2.3925                78.1408

                     67                     68                     69
                      A                      A                      A
 Frequencies --   1719.9139              1792.9353              2971.0636
 Red. masses --      1.0758                 8.0948                 1.0859
 Frc consts  --      1.8749                15.3314                 5.6476
 IR Inten    --     63.5868               120.4797                81.0337

                     70                     71                     72
                      A                      A                      A
 Frequencies --   3001.5110              3013.3202              3016.1638
 Red. masses --      1.0771                 1.0766                 1.0826
 Frc consts  --      5.7172                 5.7598                 5.8025
 IR Inten    --      4.2139                54.8621                 8.8945

                     73                     74                     75
                      A                      A                      A
 Frequencies --   3027.6853              3098.6534              3106.5848
 Red. masses --      1.0854                 1.0866                 1.0960
 Frc consts  --      5.8625                 6.1470                 6.2321
 IR Inten    --     72.6754                20.9946                32.1064

                     76                     77                     78
                      A                      A                      A
 Frequencies --   3430.3736              3457.3614              3589.5093
 Red. masses --      1.0677                 1.0683                 1.0559
 Frc consts  --      7.4027                 7.5237                 8.0156
 IR Inten    --    494.0541               514.3648               405.1449

                     79                     80                     81
                      A                      A                      A
 Frequencies --   3592.8595              3633.5068              3694.0737
 Red. masses --      1.0556                 1.0640                 1.0657
 Frc consts  --      8.0283                 8.2766                 8.5684
 IR Inten    --    356.9586                75.3846                25.9491

                     82                     83                     84
                      A                      A                      A
 Frequencies --   3729.5926              3797.9626              3809.0797
 Red. masses --      1.0653                 1.0723                 1.0723
 Frc consts  --      8.7304                 9.1127                 9.1662
 IR Inten    --     48.4155                89.5355                73.4377

 - Thermochemistry -
 -------------------
 Temperature   298.150 Kelvin.  Pressure   1.00000 Atm.
 Atom     1 has atomic number  6 and mass  12.00000

 Molecular mass:   216.08452 amu.
 Principal axes and moments of inertia in atomic units:
                           1         2         3
     Eigenvalues --  2884.149363392.875745630.46958
           X            0.99971   0.02406   0.00223
           Y           -0.02406   0.99971  -0.00018
           Z           -0.00223   0.00012   1.00000
 This molecule is an asymmetric top.
 Rotational symmetry number  1.
 Warning -- assumption of classical behavior for rotation
           may cause significant error
 Rotational temperatures (Kelvin)      0.03003     0.02553     0.01538
 Rotational constants (GHZ):           0.62574     0.53192     0.32053
 Zero-point vibrational energy     648113.3 (Joules/Mol)
                                  154.90279 (Kcal/Mol)
 Warning -- explicit consideration of  31 degrees of freedom as
           vibrations may cause significant error
 Vibrational temperatures:     49.97    88.26    96.66   112.88   160.52
          (Kelvin)            191.98   201.06   215.08   237.94   244.17
                              271.92   321.50   337.11   344.38   366.65
                              397.59   428.51   476.44   500.97   504.21
                              564.63   567.83   599.29   607.94   633.70
                              678.86   708.98   761.45   815.27   833.50
                              864.22   932.73   961.20  1045.16  1271.99
                             1293.13  1311.21  1351.43  1415.49  1440.89
                             1486.67  1542.42  1551.98  1571.87  1586.18
                             1601.25  1607.46  1621.67  1746.66  1777.27
                             1828.84  1861.84  1889.89  1934.11  1994.11
                             2010.66  2025.84  2030.90  2058.86  2068.32
                             2092.00  2119.20  2144.18  2168.33  2200.90
                             2468.06  2474.57  2579.63  4274.69  4318.50
                             4335.49  4339.58  4356.16  4458.27  4469.68
                             4935.54  4974.37  5164.50  5169.32  5227.80
                             5314.94  5366.05  5464.41  5480.41

 Zero-point correction=                           0.246853 (Hartree/Particle)
 Thermal correction to Energy=                    0.265111
 Thermal correction to Enthalpy=                  0.266055
 Thermal correction to Gibbs Free Energy=         0.201535
 Sum of electronic and zero-point Energies=           -839.742175
 Sum of electronic and thermal Energies=              -839.723918
 Sum of electronic and thermal Enthalpies=            -839.722973
 Sum of electronic and thermal Free Energies=         -839.787493

                     E (Thermal)             CV                S
                      KCal/Mol        Cal/Mol-Kelvin    Cal/Mol-Kelvin
 Total                  166.360             66.306            135.793
 Electronic               0.000              0.000              0.000
 Translational            0.889              2.981             42.015
 Rotational               0.889              2.981             32.377
 Vibrational            164.582             60.344             61.401
 Vibration     1          0.594              1.983              5.539
 Vibration     2          0.597              1.973              4.414
 Vibration     3          0.598              1.970              4.234
 Vibration     4          0.600              1.964              3.929
 Vibration     5          0.607              1.940              3.241
 Vibration     6          0.613              1.920              2.896
 Vibration     7          0.615              1.914              2.807
 Vibration     8          0.618              1.903              2.679
 Vibration     9          0.624              1.885              2.487
 Vibration    10          0.625              1.880              2.439
 Vibration    11          0.633              1.855              2.238
 Vibration    12          0.649              1.805              1.931
 Vibration    13          0.654              1.788              1.846
 Vibration    14          0.657              1.780              1.808
 Vibration    15          0.665              1.755              1.697
 Vibration    16          0.678              1.717              1.556
 Vibration    17          0.691              1.678              1.429
 Vibration    18          0.714              1.613              1.255
 Vibration    19          0.726              1.579              1.174
 Vibration    20          0.727              1.574              1.164
 Vibration    21          0.760              1.486              0.991
 Vibration    22          0.762              1.482              0.982
 Vibration    23          0.780              1.434              0.904
 Vibration    24          0.785              1.421              0.883
 Vibration    25          0.800              1.382              0.825
 Vibration    26          0.829              1.313              0.732
 Vibration    27          0.848              1.266              0.676
 Vibration    28          0.884              1.185              0.589
 Vibration    29          0.923              1.103              0.511
 Vibration    30          0.936              1.076              0.487
 Vibration    31          0.959              1.030              0.449

 Normal termination of Gaussian 09 at Sun Jan 15 12:47:58 2017.
