 Gaussian 09, Revision E.01,
 Gaussian 09:  ES64L-G09RevE.01 30-Nov-2015

 -----------------------------------------
 # opt=(MaxCycle=1000) freq B3LYP/6-31G(d)
 -----------------------------------------

 --------------------------------------------------
 ./chairs/1/glo_2w_alpha_ircf_chair_B3LYP_631Gd.out
 --------------------------------------------------
 Symbolic Z-matrix:
 Charge =  0 Multiplicity = 1

 SCF Done:  E(RB3LYP) =  -840.009862374     A.U. after   13 cycles
 SCF Done:  E(RB3LYP) =  -840.009766538     A.U. after   10 cycles
 SCF Done:  E(RB3LYP) =  -840.009862385     A.U. after    7 cycles
 SCF Done:  E(RB3LYP) =  -840.009846495     A.U. after    9 cycles
 SCF Done:  E(RB3LYP) =  -840.009861429     A.U. after    9 cycles
 SCF Done:  E(RB3LYP) =  -840.009862429     A.U. after    7 cycles
 SCF Done:  E(RB3LYP) =  -840.009862287     A.U. after    7 cycles
 SCF Done:  E(RB3LYP) =  -840.009862398     A.U. after    6 cycles
 Optimization completed.
    -- Stationary point found.
 Normal termination of Gaussian 09 at Sun Jan 15 12:32:01 2017.

 --------------------------------------------------------------------
 #N Geom=AllCheck Guess=TCheck SCRF=Check GenChk RB3LYP/6-31G(d) Freq
 --------------------------------------------------------------------

 Structure from the checkpoint file:  "/scratch/10462969.yak.local/Gau-8625.chk"
 --------------------------------------------------
 ./chairs/1/glo_2w_alpha_ircf_chair_B3LYP_631Gd.out
 --------------------------------------------------
 Charge =  0 Multiplicity = 1

                         Standard orientation:
 ---------------------------------------------------------------------
 Center     Atomic      Atomic             Coordinates (Angstroms)
 Number     Number       Type             X           Y           Z
 ---------------------------------------------------------------------
      1          6           0        0.034416   -1.327613   -0.358664
      2          8           0       -0.599428   -0.073635   -0.748257
      3          1           0       -3.465291    0.581189   -0.594367
      4          1           0       -3.187502   -2.888910    0.828994
      5          8           0       -2.867858   -2.013517    1.092796
      6          1           0       -3.202644   -1.394839    0.387614
      7          8           0       -3.401390   -0.324087   -0.957624
      8          1           0       -2.451306   -0.340123   -1.191280
      9          6           0        1.532794   -1.165078   -0.630810
     10          6           0        2.070257    0.000502    0.197237
     11          6           0        1.279628    1.286504   -0.058754
     12          6           0       -0.232272    1.031561    0.086254
     13          1           0        1.639615   -0.903997   -1.696245
     14          1           0        1.493216    1.633340   -1.076059
     15          1           0       -0.443396    0.774793    1.137063
     16          1           0        1.968161   -0.270363    1.261269
     17          8           0        2.209835   -2.369730   -0.338924
     18          8           0        3.442997    0.160548   -0.143854
     19          8           0        1.747314    2.336049    0.795530
     20          1           0        3.747793    0.969605    0.299338
     21          1           0        3.157376   -2.158515   -0.381963
     22          1           0        1.595762    2.051038    1.713214
     23          6           0       -1.069749    2.243589   -0.310515
     24          8           0       -2.443273    2.146717    0.083554
     25          1           0       -1.080236    2.342503   -1.399697
     26          1           0       -0.608932    3.144228    0.114059
     27          1           0       -2.478186    2.153745    1.053219
     28          1           0       -0.408312   -2.058139   -1.047716
     29          8           0       -0.189596   -1.636906    0.963239
     30          1           0       -1.155367   -1.855859    1.072384
 ---------------------------------------------------------------------

 SCF Done:  E(RB3LYP) =  -840.009862398     A.U. after    1 cycles

 The electronic state is 1-A.
 Alpha  occ. eigenvalues --  -19.17855 -19.17630 -19.17113 -19.15815 -19.14162
 Alpha  occ. eigenvalues --  -19.14111 -19.13740 -19.13631 -10.28640 -10.25449
 Alpha  occ. eigenvalues --  -10.25278 -10.25222 -10.24234 -10.23763  -1.07408
 Alpha  occ. eigenvalues --   -1.05094  -1.04543  -1.03196  -1.01141  -1.00587
 Alpha  occ. eigenvalues --   -0.99919  -0.98592  -0.79193  -0.77452  -0.69998
 Alpha  occ. eigenvalues --   -0.65070  -0.63099  -0.58960  -0.55660  -0.53809
 Alpha  occ. eigenvalues --   -0.52744  -0.52022  -0.51852  -0.50954  -0.50445
 Alpha  occ. eigenvalues --   -0.48103  -0.47379  -0.44444  -0.44296  -0.43176
 Alpha  occ. eigenvalues --   -0.42771  -0.40974  -0.40041  -0.39618  -0.37299
 Alpha  occ. eigenvalues --   -0.36567  -0.36083  -0.35623  -0.34818  -0.32223
 Alpha  occ. eigenvalues --   -0.31504  -0.30231  -0.29796  -0.29349  -0.28745
 Alpha  occ. eigenvalues --   -0.27983  -0.26643  -0.26308
 Alpha virt. eigenvalues --    0.04197   0.04399   0.07284   0.07784   0.09923
 Alpha virt. eigenvalues --    0.10606   0.11256   0.12469   0.13334   0.13784
 Alpha virt. eigenvalues --    0.14467   0.15784   0.17246   0.18035   0.18801

 Mulliken charges:
               1
     1  C    0.293363
     2  O   -0.536781
     3  H    0.420574
     4  H    0.396358
     5  O   -0.829982
     6  H    0.425381
     7  O   -0.833138
     8  H    0.424504
     9  C    0.150567
    10  C    0.082154
    11  C    0.082172
    12  C    0.108959
    13  H    0.126653
    14  H    0.154705
    15  H    0.125803
    16  H    0.136532
    17  O   -0.635706
    18  O   -0.651468
    19  O   -0.631748
    20  H    0.403911
    21  H    0.409599
    22  H    0.391606
    23  C   -0.064315
    24  O   -0.624024
    25  H    0.169297
    26  H    0.160219
    27  H    0.402211
    28  H    0.135279
    29  O   -0.639580
    30  H    0.446893
 Sum of Mulliken charges =   0.00000

 Dipole moment (field-independent basis, Debye):
    X=              0.5394    Y=              2.4478    Z=              1.2899  Tot=              2.8190
 Quadrupole moment (field-independent basis, Debye-Ang):
   XX=            -86.9001   YY=            -83.4357   ZZ=            -81.6728
   XY=              4.0614   XZ=             -1.5012   YZ=              6.9758

  Exact polarizability: 104.899   1.379  99.042  -0.230   1.808  79.841
 Approx polarizability: 130.577   3.163 130.828   0.305   0.910 124.886

                      1                      2                      3
                      A                      A                      A
 Frequencies --     40.3791                53.2209                81.3925
 Red. masses --      5.5082                 5.7131                 5.5805
 Frc consts  --      0.0053                 0.0095                 0.0218
 IR Inten    --      2.6968                 1.0493                 0.7324

                      4                      5                      6
                      A                      A                      A
 Frequencies --    101.0755               120.2155               145.9893
 Red. masses --      5.9437                 7.4668                 5.1111
 Frc consts  --      0.0358                 0.0636                 0.0642
 IR Inten    --      1.7258                 5.9382                 3.8169

                      7                      8                      9
                      A                      A                      A
 Frequencies --    157.3919               184.0975               207.1302
 Red. masses --      5.6131                 4.7672                 4.0987
 Frc consts  --      0.0819                 0.0952                 0.1036
 IR Inten    --      2.7165                 7.5076                 7.3228

                     10                     11                     12
                      A                      A                      A
 Frequencies --    227.9514               241.4954               255.3908
 Red. masses --      3.8493                 3.1796                 4.3818
 Frc consts  --      0.1178                 0.1093                 0.1684
 IR Inten    --      8.0978                12.3122                13.8486

                     13                     14                     15
                      A                      A                      A
 Frequencies --    280.1071               294.9927               302.7324
 Red. masses --      4.1454                 1.7359                 1.6082
 Frc consts  --      0.1916                 0.0890                 0.0868
 IR Inten    --     29.0329                14.9121                38.0102

                     16                     17                     18
                      A                      A                      A
 Frequencies --    316.2499               330.0418               343.4708
 Red. masses --      2.1808                 1.5060                 1.3961
 Frc consts  --      0.1285                 0.0967                 0.0970
 IR Inten    --      5.4220                80.5589               121.6794

                     19                     20                     21
                      A                      A                      A
 Frequencies --    360.6121               372.9185               396.4187
 Red. masses --      1.3518                 2.6751                 2.5881
 Frc consts  --      0.1036                 0.2192                 0.2396
 IR Inten    --    109.5243                21.2359                27.5892

                     22                     23                     24
                      A                      A                      A
 Frequencies --    408.2813               423.0074               436.1356
 Red. masses --      1.7396                 2.7238                 1.4590
 Frc consts  --      0.1708                 0.2872                 0.1635
 IR Inten    --     47.5360                 4.4222               133.1045

                     25                     26                     27
                      A                      A                      A
 Frequencies --    446.0625               453.5461               541.7350
 Red. masses --      2.0990                 1.4523                 4.1313
 Frc consts  --      0.2461                 0.1760                 0.7143
 IR Inten    --     12.4045               125.8990                 1.8652

                     28                     29                     30
                      A                      A                      A
 Frequencies --    553.0044               575.0861               608.6209
 Red. masses --      2.4776                 1.3997                 3.5205
 Frc consts  --      0.4464                 0.2727                 0.7683
 IR Inten    --     17.0023                41.6555                20.0664

                     31                     32                     33
                      A                      A                      A
 Frequencies --    656.8295               775.3909               780.9139
 Red. masses --      3.8816                 1.1854                 3.6673
 Frc consts  --      0.9867                 0.4199                 1.3176
 IR Inten    --     11.6769               213.6515                78.1720

                     34                     35                     36
                      A                      A                      A
 Frequencies --    842.9019               921.5468               933.9905
 Red. masses --      2.4333                 1.2632                 2.0051
 Frc consts  --      1.0186                 0.6321                 1.0306
 IR Inten    --     15.8360                56.6808                99.6653

                     37                     38                     39
                      A                      A                      A
 Frequencies --    979.3115               999.3439              1021.0431
 Red. masses --      5.4466                 4.6492                 1.1463
 Frc consts  --      3.0777                 2.7356                 0.7041
 IR Inten    --    214.6900               105.4140               117.8853

                     40                     41                     42
                      A                      A                      A
 Frequencies --   1024.8473              1069.4961              1072.5725
 Red. masses --      2.6463                 2.6580                 2.7562
 Frc consts  --      1.6376                 1.7913                 1.8682
 IR Inten    --    109.2557                57.9583                36.8393

                     43                     44                     45
                      A                      A                      A
 Frequencies --   1079.1082              1119.2484              1128.6610
 Red. masses --      4.3598                 2.6883                 3.1339
 Frc consts  --      2.9912                 1.9842                 2.3522
 IR Inten    --     59.3750                21.8066                33.9735

                     46                     47                     48
                      A                      A                      A
 Frequencies --   1138.6906              1143.5106              1182.3677
 Red. masses --      2.7480                 3.9940                 2.1655
 Frc consts  --      2.0993                 3.0771                 1.7837
 IR Inten    --     15.8970                70.3230                84.1269

                     49                     50                     51
                      A                      A                      A
 Frequencies --   1220.4301              1223.9987              1257.9690
 Red. masses --      1.3939                 1.4487                 1.2563
 Frc consts  --      1.2233                 1.2788                 1.1713
 IR Inten    --     31.9490                35.7473                17.7090

                     52                     53                     54
                      A                      A                      A
 Frequencies --   1280.2771              1289.1730              1347.6077
 Red. masses --      1.1625                 1.2366                 1.2701
 Frc consts  --      1.1227                 1.2109                 1.3590
 IR Inten    --     24.4104                26.0658                45.5977

                     55                     56                     57
                      A                      A                      A
 Frequencies --   1357.8571              1377.7528              1379.2188
 Red. masses --      1.2261                 1.3069                 1.2596
 Frc consts  --      1.3319                 1.4616                 1.4117
 IR Inten    --      7.7825                46.0095                 1.4734

                     58                     59                     60
                      A                      A                      A
 Frequencies --   1398.0225              1411.9665              1423.2406
 Red. masses --      1.2597                 1.3414                 1.2547
 Frc consts  --      1.4506                 1.5757                 1.4974
 IR Inten    --     38.5852                 8.9734                57.4124

                     61                     62                     63
                      A                      A                      A
 Frequencies --   1436.0036              1442.0692              1451.6767
 Red. masses --      1.3005                 1.3990                 1.3866
 Frc consts  --      1.5801                 1.7141                 1.7217
 IR Inten    --     31.9018                20.3338                12.2225

                     64                     65                     66
                      A                      A                      A
 Frequencies --   1459.2823              1523.2364              1540.6011
 Red. masses --      1.6139                 1.0870                 1.4156
 Frc consts  --      2.0250                 1.4860                 1.9796
 IR Inten    --     21.7808                 3.4155                43.4189

                     67                     68                     69
                      A                      A                      A
 Frequencies --   1743.4984              1779.5667              2993.1862
 Red. masses --      1.0739                 1.0773                 1.0811
 Frc consts  --      1.9233                 2.0102                 5.7067
 IR Inten    --     74.4009               221.9124                 1.4553

                     70                     71                     72
                      A                      A                      A
 Frequencies --   3001.0127              3006.4440              3058.1187
 Red. masses --      1.0830                 1.0843                 1.0874
 Frc consts  --      5.7464                 5.7741                 5.9916
 IR Inten    --      9.8880                76.4999                52.5557

                     73                     74                     75
                      A                      A                      A
 Frequencies --   3061.5620              3087.0572              3129.8436
 Red. masses --      1.0633                 1.0863                 1.1030
 Frc consts  --      5.8721                 6.0994                 6.3660
 IR Inten    --     23.5733                26.0309                16.5492

                     76                     77                     78
                      A                      A                      A
 Frequencies --   3241.1362              3346.5910              3631.0786
 Red. masses --      1.0671                 1.0640                 1.0495
 Frc consts  --      6.6044                 7.0208                 8.1530
 IR Inten    --    631.3512               983.2154               306.1556

                     79                     80                     81
                      A                      A                      A
 Frequencies --   3673.6588              3701.9031              3727.3150
 Red. masses --      1.0751                 1.0657                 1.0657
 Frc consts  --      8.5490                 8.6050                 8.7232
 IR Inten    --    148.9868                11.5696                25.4300

                     82                     83                     84
                      A                      A                      A
 Frequencies --   3728.8696              3741.5215              3801.7502
 Red. masses --      1.0657                 1.0662                 1.0668
 Frc consts  --      8.7304                 8.7941                 9.0843
 IR Inten    --     38.5391                21.0087                40.4030

 - Thermochemistry -
 -------------------
 Temperature   298.150 Kelvin.  Pressure   1.00000 Atm.
 Atom     1 has atomic number  6 and mass  12.00000

 Molecular mass:   216.08452 amu.
 Principal axes and moments of inertia in atomic units:
                           1         2         3
     Eigenvalues --  2285.827963673.288715272.01793
           X            0.99989   0.01491  -0.00075
           Y           -0.01491   0.99988   0.00350
           Z            0.00080  -0.00349   0.99999
 This molecule is an asymmetric top.
 Rotational symmetry number  1.
 Warning -- assumption of classical behavior for rotation
           may cause significant error
 Rotational temperatures (Kelvin)      0.03789     0.02358     0.01643
 Rotational constants (GHZ):           0.78954     0.49131     0.34232
 Zero-point vibrational energy     654375.4 (Joules/Mol)
                                  156.39947 (Kcal/Mol)
 Warning -- explicit consideration of  30 degrees of freedom as
           vibrations may cause significant error
 Vibrational temperatures:     58.10    76.57   117.11   145.42   172.96
          (Kelvin)            210.05   226.45   264.87   298.01   327.97
                              347.46   367.45   403.01   424.43   435.56
                              455.01   474.86   494.18   518.84   536.55
                              570.36   587.43   608.61   627.50   641.78
                              652.55   779.43   795.65   827.42   875.67
                              945.03  1115.61  1123.56  1212.75  1325.90
                             1343.80  1409.01  1437.83  1469.05  1474.52
                             1538.76  1543.19  1552.59  1610.35  1623.89
                             1638.32  1645.25  1701.16  1755.92  1761.06
                             1809.93  1842.03  1854.83  1938.90  1953.65
                             1982.28  1984.39  2011.44  2031.50  2047.72
                             2066.09  2074.81  2088.64  2099.58  2191.59
                             2216.58  2508.50  2560.40  4306.52  4317.78
                             4325.60  4399.95  4404.90  4441.58  4503.14
                             4663.27  4814.99  5224.31  5285.57  5326.21
                             5362.77  5365.00  5383.21  5469.86

 Zero-point correction=                           0.249238 (Hartree/Particle)
 Thermal correction to Energy=                    0.266371
 Thermal correction to Enthalpy=                  0.267315
 Thermal correction to Gibbs Free Energy=         0.205736
 Sum of electronic and zero-point Energies=           -839.760624
 Sum of electronic and thermal Energies=              -839.743492
 Sum of electronic and thermal Enthalpies=            -839.742548
 Sum of electronic and thermal Free Energies=         -839.804126

                     E (Thermal)             CV                S
                      KCal/Mol        Cal/Mol-Kelvin    Cal/Mol-Kelvin
 Total                  167.150             64.048            129.604
 Electronic               0.000              0.000              0.000
 Translational            0.889              2.981             42.015
 Rotational               0.889              2.981             32.160
 Vibrational            165.373             58.086             55.429
 Vibration     1          0.594              1.981              5.240
 Vibration     2          0.596              1.976              4.694
 Vibration     3          0.600              1.962              3.857
 Vibration     4          0.604              1.948              3.433
 Vibration     5          0.609              1.932              3.097
 Vibration     6          0.617              1.907              2.724
 Vibration     7          0.621              1.894              2.581
 Vibration     8          0.631              1.862              2.286
 Vibration     9          0.641              1.830              2.069
 Vibration    10          0.651              1.798              1.895
 Vibration    11          0.658              1.777              1.792
 Vibration    12          0.666              1.754              1.693
 Vibration    13          0.680              1.710              1.533
 Vibration    14          0.689              1.683              1.445
 Vibration    15          0.694              1.669              1.402
 Vibration    16          0.703              1.643              1.329
 Vibration    17          0.713              1.615              1.260
 Vibration    18          0.722              1.589              1.196
 Vibration    19          0.735              1.553              1.119
 Vibration    20          0.744              1.528              1.068
 Vibration    21          0.763              1.478              0.976
 Vibration    22          0.773              1.452              0.933
 Vibration    23          0.785              1.420              0.882
 Vibration    24          0.797              1.391              0.839
 Vibration    25          0.805              1.370              0.808
 Vibration    26          0.812              1.353              0.785
 Vibration    27          0.897              1.158              0.562
 Vibration    28          0.908              1.133              0.538
 Vibration    29          0.931              1.085              0.495
 Vibration    30          0.968              1.014              0.435

 Normal termination of Gaussian 09 at Sun Jan 15 12:49:02 2017.
