 Gaussian 09, Revision E.01,
 Gaussian 09:  ES64L-G09RevE.01 30-Nov-2015

 --------------------------------------------------
 # b3lyp/6-31g(d) irc=(calcfc,forward,maxpoints=20)
 --------------------------------------------------

 ------------------------------------------
 ./2/glo_2w_beta_boat2_b3lyp_631Gd_iopt.out
 ------------------------------------------
 Symbolic Z-matrix:
 Charge =  0 Multiplicity = 1

 SCF Done:  E(RB3LYP) =  -840.000018473     A.U. after   13 cycles
 SCF Done:  E(RB3LYP) =  -840.000020582     A.U. after   11 cycles
 SCF Done:  E(RB3LYP) =  -840.000021969     A.U. after    9 cycles
 SCF Done:  E(RB3LYP) =  -840.000022167     A.U. after    9 cycles

                          Input orientation:
 ---------------------------------------------------------------------
 Center     Atomic      Atomic             Coordinates (Angstroms)
 Number     Number       Type             X           Y           Z
 ---------------------------------------------------------------------
      1          6           0       -0.250694   -0.929660   -1.046143
      2          8           0        0.504043    0.203145   -0.569892
      3          1           0        2.970093    0.662135   -0.186398
      4          1           0        1.647213   -2.007192    1.921046
      5          8           0        2.025539   -2.218218    1.054385
      6          1           0        2.634066   -1.474147    0.811722
      7          8           0        3.335676   -0.239419   -0.300281
      8          1           0        2.782365   -0.588609   -1.019940
      9          6           0       -1.509829    1.199890    0.485068
     10          6           0       -0.235062    1.416257   -0.389571
     11          1           0       -1.515200    1.929978    1.302500
     12          1           0       -0.557007    1.794272   -1.373463
     13          8           0       -2.713733    1.410306   -0.232616
     14          1           0       -2.896907    0.591499   -0.732610
     15          6           0        0.732819    2.398334    0.277271
     16          8           0        2.030743    2.426847   -0.311267
     17          1           0        0.894981    2.097686    1.316516
     18          1           0        0.276298    3.398749    0.285103
     19          1           0        1.939888    2.658233   -1.249689
     20          1           0        1.048525   -2.213686   -0.416062
     21          6           0       -1.366307   -1.276159   -0.017603
     22          1           0       -1.147021   -2.253696    0.428837
     23          6           0       -1.437664   -0.214602    1.101405
     24          1           0       -2.333951   -0.380061    1.709584
     25          8           0       -2.591229   -1.332308   -0.768870
     26          1           0       -3.277317   -1.722789   -0.203733
     27          8           0       -0.321777   -0.343266    1.978641
     28          1           0        0.458544   -0.285333    1.397245
     29          8           0        0.643171   -1.950119   -1.283278
     30          1           0       -0.724590   -0.669713   -2.002450
 ---------------------------------------------------------------------

 Alpha  occ. eigenvalues --  -19.18737 -19.18117 -19.17620 -19.16184 -19.14985
 Alpha  occ. eigenvalues --  -19.14911 -19.14683 -19.13981 -10.29910 -10.25807
 Alpha  occ. eigenvalues --  -10.25718 -10.25696 -10.25441 -10.25035  -1.08775
 Alpha  occ. eigenvalues --   -1.05573  -1.04808  -1.03761  -1.02261  -1.01292
 Alpha  occ. eigenvalues --   -1.00442  -0.99183  -0.78945  -0.77688  -0.70354
 Alpha  occ. eigenvalues --   -0.66093  -0.64653  -0.59959  -0.56274  -0.55272
 Alpha  occ. eigenvalues --   -0.54283  -0.52997  -0.52512  -0.51333  -0.50444
 Alpha  occ. eigenvalues --   -0.48023  -0.46861  -0.45809  -0.45598  -0.43685
 Alpha  occ. eigenvalues --   -0.41474  -0.41342  -0.40031  -0.39605  -0.39112
 Alpha  occ. eigenvalues --   -0.38295  -0.36714  -0.35963  -0.35108  -0.33970
 Alpha  occ. eigenvalues --   -0.32105  -0.31628  -0.30691  -0.29800  -0.29435
 Alpha  occ. eigenvalues --   -0.28764  -0.27040  -0.25819
 Alpha virt. eigenvalues --    0.03165   0.04425   0.06332   0.08465   0.10018
 Alpha virt. eigenvalues --    0.10674   0.11027   0.11887   0.12604   0.13034
 Alpha virt. eigenvalues --    0.14540   0.14795   0.15866   0.16643   0.18407

 Mulliken charges:
               1
     1  C    0.346776
     2  O   -0.533797
     3  H    0.429424
     4  H    0.402449
     5  O   -0.826411
     6  H    0.431410
     7  O   -0.820739
     8  H    0.401260
     9  C    0.090927
    10  C    0.091139
    11  H    0.152172
    12  H    0.139093
    13  O   -0.654777
    14  H    0.413154
    15  C   -0.065527
    16  O   -0.611621
    17  H    0.168670
    18  H    0.151789
    19  H    0.404032
    20  H    0.443752
    21  C    0.035778
    22  H    0.159600
    23  C    0.081394
    24  H    0.142136
    25  O   -0.633548
    26  H    0.409512
    27  O   -0.653528
    28  H    0.402400
    29  O   -0.649179
    30  H    0.152256
 Sum of Mulliken charges =  -0.00000

 Dipole moment (field-independent basis, Debye):
    X=             -2.7758    Y=              1.6960    Z=              0.2228  Tot=              3.2605
 Quadrupole moment (field-independent basis, Debye-Ang):
   XX=            -92.7123   YY=            -84.2092   ZZ=            -83.1382
   XY=             12.3128   XZ=             -2.6875   YZ=             -6.9290

  Exact polarizability:   0.000   0.000   0.000   0.000   0.000   0.000
 Approx polarizability: 134.151  -2.576 128.693   3.731  -0.704 127.719

 Normal termination of Gaussian 09 at Tue Jan 31 13:46:46 2017.
