 Gaussian 09, Revision E.01,
 Gaussian 09:  ES64L-G09RevE.01 30-Nov-2015

 ----------------------
 # OPT B3LYP 6-31G FREQ
 ----------------------

 -------
 CF4.LOG
 -------
 Symbolic Z-matrix:
 Charge =  0 Multiplicity = 1

 SCF Done:  E(RB3LYP) =  -436.835576839     A.U. after   10 cycles
 SCF Done:  E(RB3LYP) =  -437.143406407     A.U. after   10 cycles
 SCF Done:  E(RB3LYP) =  -437.358482125     A.U. after   12 cycles
 SCF Done:  E(RB3LYP) =  -437.363989501     A.U. after   10 cycles
 SCF Done:  E(RB3LYP) =  -437.364023925     A.U. after    6 cycles
 Optimization completed.
    -- Stationary point found.
 Normal termination of Gaussian 09 at Thu Mar  9 19:23:05 2017.

 -----------------------------------------------------------------
 #N Geom=AllCheck Guess=TCheck SCRF=Check GenChk RB3LYP/6-31G Freq
 -----------------------------------------------------------------

 Structure from the checkpoint file:  "//home/aalrawas/scratch/Gau-31920.chk"
 -------
 CF4.LOG
 -------
 Charge =  0 Multiplicity = 1

                         Standard orientation:
 ---------------------------------------------------------------------
 Center     Atomic      Atomic             Coordinates (Angstroms)
 Number     Number       Type             X           Y           Z
 ---------------------------------------------------------------------
      1          6           0        0.000000    0.000000    0.000000
      2          9           0        0.789480    0.789480    0.789480
      3          9           0       -0.789480   -0.789480    0.789480
      4          9           0       -0.789480    0.789480   -0.789480
      5          9           0        0.789480   -0.789480   -0.789480
 ---------------------------------------------------------------------

 SCF Done:  E(RB3LYP) =  -437.364023925     A.U. after    1 cycles

 The electronic state is 1-A1.
 Alpha  occ. eigenvalues --  -24.77654 -24.77646 -24.77646 -24.77646 -10.55322
 Alpha  occ. eigenvalues --   -1.38205  -1.27389  -1.27389  -1.27389  -0.74136
 Alpha  occ. eigenvalues --   -0.64124  -0.64124  -0.64124  -0.50400  -0.50400
 Alpha  occ. eigenvalues --   -0.48381  -0.48381  -0.48381  -0.44917  -0.44917
 Alpha  occ. eigenvalues --   -0.44917
 Alpha virt. eigenvalues --    0.07814   0.11053   0.11053   0.11053   0.47340
 Alpha virt. eigenvalues --    0.47340   0.47340   0.51698   1.02296   1.02296
 Alpha virt. eigenvalues --    1.17033   1.17033   1.17033   1.17872   1.30967

 Mulliken charges:
               1
     1  C    0.959188
     2  F   -0.239797
     3  F   -0.239797
     4  F   -0.239797
     5  F   -0.239797
 Sum of Mulliken charges =  -0.00000

 Dipole moment (field-independent basis, Debye):
    X=             -0.0000    Y=              0.0000    Z=              0.0000  Tot=              0.0000
 Quadrupole moment (field-independent basis, Debye-Ang):
   XX=            -25.8658   YY=            -25.8658   ZZ=            -25.8658
   XY=             -0.0000   XZ=              0.0000   YZ=             -0.0000

  Exact polarizability:  11.992  -0.000  11.992  -0.000  -0.000  11.992
 Approx polarizability:  16.459  -0.000  16.459  -0.000  -0.000  16.459

                      1                      2                      3
                      E                      E                     T2
 Frequencies --    385.5889               385.5889               570.7059
 Red. masses --     18.9984                18.9984                18.0937
 Frc consts  --      1.6642                 1.6642                 3.4722
 IR Inten    --      0.0000                 0.0000                10.5889

                      4                      5                      6
                     T2                     T2                     A1
 Frequencies --    570.7059               570.7059               844.5394
 Red. masses --     18.0937                18.0937                18.9984
 Frc consts  --      3.4722                 3.4722                 7.9838
 IR Inten    --     10.5889                10.5889                 0.0000

                      7                      8                      9
                     T2                     T2                     T2
 Frequencies --   1253.8387              1253.8387              1253.8387
 Red. masses --     13.0693                13.0693                13.0693
 Frc consts  --     12.1056                12.1056                12.1056
 IR Inten    --    366.1379               366.1379               366.1379

 - Thermochemistry -
 -------------------
 Temperature   298.150 Kelvin.  Pressure   1.00000 Atm.
 Atom     1 has atomic number  6 and mass  12.00000

 Molecular mass:    87.99361 amu.
 Principal axes and moments of inertia in atomic units:
                           1         2         3
     Eigenvalues --   338.28798 338.28798 338.28798
           X            0.67333   0.00000   0.73934
           Y            0.73934   0.00000  -0.67333
           Z           -0.00000   1.00000  -0.00000
 This molecule is a spherical top.
 Rotational symmetry number 12.
 Rotational temperatures (Kelvin)      0.25604     0.25604     0.25604
 Rotational constants (GHZ):           5.33493     5.33493     5.33493
 Zero-point vibrational energy      42403.7 (Joules/Mol)
                                   10.13474 (Kcal/Mol)
 Warning -- explicit consideration of   5 degrees of freedom as
           vibrations may cause significant error
 Vibrational temperatures:    554.78   554.78   821.12   821.12   821.12
          (Kelvin)           1215.10  1803.99  1803.99  1803.99

 Zero-point correction=                           0.016151 (Hartree/Particle)
 Thermal correction to Energy=                    0.020268
 Thermal correction to Enthalpy=                  0.021212
 Thermal correction to Gibbs Free Energy=        -0.008901
 Sum of electronic and zero-point Energies=           -437.347873
 Sum of electronic and thermal Energies=              -437.343756
 Sum of electronic and thermal Enthalpies=            -437.342812
 Sum of electronic and thermal Free Energies=         -437.372925

                     E (Thermal)             CV                S
                      KCal/Mol        Cal/Mol-Kelvin    Cal/Mol-Kelvin
 Total                   12.718             13.344             63.378
 Electronic               0.000              0.000              0.000
 Translational            0.889              2.981             39.337
 Rotational               0.889              2.981             20.225
 Vibrational             10.941              7.383              3.816
 Vibration     1          0.754              1.501              1.017
 Vibration     2          0.754              1.501              1.017
 Vibration     3          0.927              1.095              0.503
 Vibration     4          0.927              1.095              0.503
 Vibration     5          0.927              1.095              0.503

 Optimization completed.
    -- Stationary point found.
 Normal termination of Gaussian 09 at Thu Mar  9 19:23:10 2017.
