 Gaussian 09, Revision D.01,
 Gaussian 09:  ES64L-G09RevD.01 24-Apr-2013

 ----------------------
 # OPT B3LYP 6-31G FREQ
 ----------------------

 -------
 CH4.LOG
 -------
 Symbolic Z-matrix:
 Charge =  0 Multiplicity = 1

 SCF Done:  E(RB3LYP) =  -40.5106451896     A.U. after    9 cycles
 SCF Done:  E(RB3LYP) =  -40.5106487145     A.U. after    5 cycles
 Optimization completed.
    -- Stationary point found.
 Normal termination of Gaussian 09 at Thu Mar  9 16:32:12 2017.

 -----------------------------------------------------------------
 #N Geom=AllCheck Guess=TCheck SCRF=Check GenChk RB3LYP/6-31G Freq
 -----------------------------------------------------------------

 Structure from the checkpoint file:  "/home/iawad/Gau-13909.chk"
 -------
 CH4.LOG
 -------
 Charge =  0 Multiplicity = 1

                         Standard orientation:
 ---------------------------------------------------------------------
 Center     Atomic      Atomic             Coordinates (Angstroms)
 Number     Number       Type             X           Y           Z
 ---------------------------------------------------------------------
      1          6           0        0.000000    0.000000    0.000000
      2          1           0        0.631149    0.631149    0.631149
      3          1           0       -0.631149   -0.631149    0.631149
      4          1           0       -0.631149    0.631149   -0.631149
      5          1           0        0.631149   -0.631149   -0.631149
 ---------------------------------------------------------------------

 SCF Done:  E(RB3LYP) =  -40.5106487145     A.U. after    1 cycles

 The electronic state is 1-A1.
 Alpha  occ. eigenvalues --  -10.16002  -0.69286  -0.38988  -0.38988  -0.38988
 Alpha virt. eigenvalues --    0.11728   0.17562   0.17562   0.17562   0.54442
 Alpha virt. eigenvalues --    0.54442   0.54442   0.93865   0.93865   0.93865
 Alpha virt. eigenvalues --    0.94471   1.11021

 Mulliken charges:
               1
     1  C   -0.578169
     2  H    0.144542
     3  H    0.144542
     4  H    0.144542
     5  H    0.144542
 Sum of Mulliken charges =   0.00000

 Dipole moment (field-independent basis, Debye):
    X=              0.0000    Y=              0.0000    Z=              0.0000  Tot=              0.0000
 Quadrupole moment (field-independent basis, Debye-Ang):
   XX=             -8.2820   YY=             -8.2820   ZZ=             -8.2820
   XY=              0.0000   XZ=              0.0000   YZ=              0.0000

  Exact polarizability:  12.122   0.000  12.122   0.000   0.000  12.122
 Approx polarizability:  13.990   0.000  13.990   0.000   0.000  13.990

                      1                      2                      3
                     T2                     T2                     T2
 Frequencies --   1404.1607              1404.1607              1404.1607
 Red. masses --      1.1824                 1.1824                 1.1824
 Frc consts  --      1.3735                 1.3735                 1.3735
 IR Inten    --     25.0976                25.0976                25.0976

                      4                      5                      6
                      E                      E                     A1
 Frequencies --   1602.3769              1602.3769              3045.0328
 Red. masses --      1.0078                 1.0078                 1.0078
 Frc consts  --      1.5246                 1.5246                 5.5058
 IR Inten    --      0.0000                 0.0000                 0.0000

                      7                      8                      9
                     T2                     T2                     T2
 Frequencies --   3168.1193              3168.1193              3168.1193
 Red. masses --      1.0987                 1.0987                 1.0987
 Frc consts  --      6.4974                 6.4974                 6.4974
 IR Inten    --     30.9621                30.9621                30.9621

 - Thermochemistry -
 -------------------
 Temperature   298.150 Kelvin.  Pressure   1.00000 Atm.
 Atom     1 has atomic number  6 and mass  12.00000

 Molecular mass:    16.03130 amu.
 Principal axes and moments of inertia in atomic units:
                           1         2         3
     Eigenvalues --    11.46930  11.46930  11.46930
           X            0.44721   0.89443   0.00000
           Y            0.89443  -0.44721   0.00000
           Z            0.00000   0.00000   1.00000
 This molecule is a spherical top.
 Rotational symmetry number 12.
 Rotational temperatures (Kelvin)      7.55179     7.55179     7.55179
 Rotational constants (GHZ):         157.35406   157.35406   157.35406
 Zero-point vibrational energy     119426.9 (Joules/Mol)
                                   28.54373 (Kcal/Mol)
 Vibrational temperatures:   2020.27  2020.27  2020.27  2305.46  2305.46
          (Kelvin)           4381.12  4558.21  4558.21  4558.21

 Zero-point correction=                           0.045487 (Hartree/Particle)
 Thermal correction to Energy=                    0.048348
 Thermal correction to Enthalpy=                  0.049292
 Thermal correction to Gibbs Free Energy=         0.028165
 Sum of electronic and zero-point Energies=            -40.465161
 Sum of electronic and thermal Energies=               -40.462300
 Sum of electronic and thermal Enthalpies=             -40.461356
 Sum of electronic and thermal Free Energies=          -40.482484

                     E (Thermal)             CV                S
                      KCal/Mol        Cal/Mol-Kelvin    Cal/Mol-Kelvin
 Total                   30.339              6.379             44.467
 Electronic               0.000              0.000              0.000
 Translational            0.889              2.981             34.261
 Rotational               0.889              2.981             10.137
 Vibrational             28.562              0.418              0.068

 Optimization completed.
    -- Stationary point found.
 Normal termination of Gaussian 09 at Thu Mar  9 16:32:14 2017.
