 Gaussian 09, Revision D.01,
 Gaussian 09:  ES64L-G09RevD.01 24-Apr-2013

 ----------------------
 # OPT B3LYP 6-31G FREQ
 ----------------------

 ------
 CO.LOG
 ------
 Symbolic Z-matrix:
 Charge =  0 Multiplicity = 1

 SCF Done:  E(RB3LYP) =  -113.257492229     A.U. after   11 cycles
 SCF Done:  E(RB3LYP) =  -113.259120096     A.U. after   10 cycles
 SCF Done:  E(RB3LYP) =  -113.259179017     A.U. after    7 cycles
 Optimization completed.
    -- Stationary point found.
 Normal termination of Gaussian 09 at Thu Mar  9 20:40:57 2017.

 -----------------------------------------------------------------
 #N Geom=AllCheck Guess=TCheck SCRF=Check GenChk RB3LYP/6-31G Freq
 -----------------------------------------------------------------

 Structure from the checkpoint file:  "/home/iawad/Gau-27744.chk"
 ------
 CO.LOG
 ------
 Charge =  0 Multiplicity = 1

                         Standard orientation:
 ---------------------------------------------------------------------
 Center     Atomic      Atomic             Coordinates (Angstroms)
 Number     Number       Type             X           Y           Z
 ---------------------------------------------------------------------
      1          6           0        0.000000    0.000000   -0.660715
      2          8           0        0.000000    0.000000    0.495536
 ---------------------------------------------------------------------

 SCF Done:  E(RB3LYP) =  -113.259179017     A.U. after    1 cycles

 The electronic state is 1-SG.
 Alpha  occ. eigenvalues --  -19.26564 -10.32934  -1.18952  -0.56941  -0.47422
 Alpha  occ. eigenvalues --   -0.47422  -0.37264
 Alpha virt. eigenvalues --   -0.04148  -0.04148   0.25596   0.50871   0.50871
 Alpha virt. eigenvalues --    0.58556   0.73161   0.87657   0.91014   0.91014
 Alpha virt. eigenvalues --    1.55653

 Mulliken charges:
               1
     1  C    0.213918
     2  O   -0.213918
 Sum of Mulliken charges =   0.00000

 Dipole moment (field-independent basis, Debye):
    X=              0.0000    Y=              0.0000    Z=             -0.1280  Tot=              0.1280
 Quadrupole moment (field-independent basis, Debye-Ang):
   XX=             -9.9442   YY=             -9.9442   ZZ=            -12.5789
   XY=              0.0000   XZ=              0.0000   YZ=              0.0000

  Exact polarizability:   7.371   0.000   7.371   0.000   0.000  13.023
 Approx polarizability:   9.202   0.000   9.202   0.000   0.000  26.073

                      1
                     SG
 Frequencies --   2066.3322
 Red. masses --     13.4388
 Frc consts  --     33.8072
 IR Inten    --     69.0235

 - Thermochemistry -
 -------------------
 Temperature   298.150 Kelvin.  Pressure   1.00000 Atm.
 Atom     1 has atomic number  6 and mass  12.00000

 Molecular mass:    27.99491 amu.
 Principal axes and moments of inertia in atomic units:
                           1         2         3
     Eigenvalues --     0.00000  32.73299  32.73299
           X            0.00000   0.00000   1.00000
           Y            0.00000   1.00000   0.00000
           Z            1.00000   0.00000   0.00000
 This molecule is a prolate symmetric top.
 Rotational symmetry number  1.
 Rotational temperature (Kelvin)      2.64607
 Rotational constant (GHZ):          55.135244
 Zero-point vibrational energy      12359.4 (Joules/Mol)
                                    2.95397 (Kcal/Mol)
 Vibrational temperatures:   2972.99
          (Kelvin)

 Zero-point correction=                           0.004707 (Hartree/Particle)
 Thermal correction to Energy=                    0.007068
 Thermal correction to Enthalpy=                  0.008013
 Thermal correction to Gibbs Free Energy=        -0.014461
 Sum of electronic and zero-point Energies=           -113.254472
 Sum of electronic and thermal Energies=              -113.252111
 Sum of electronic and thermal Enthalpies=            -113.251166
 Sum of electronic and thermal Free Energies=         -113.273640

                     E (Thermal)             CV                S
                      KCal/Mol        Cal/Mol-Kelvin    Cal/Mol-Kelvin
 Total                    4.435              4.977             47.300
 Electronic               0.000              0.000              0.000
 Translational            0.889              2.981             35.923
 Rotational               0.592              1.987             11.376
 Vibrational              2.954              0.009              0.001

 Optimization completed.
    -- Stationary point found.
 Normal termination of Gaussian 09 at Thu Mar  9 20:40:59 2017.
