 Gaussian 09, Revision D.01,
 Gaussian 09:  ES64L-G09RevD.01 24-Apr-2013

 ----------------------
 # OPT B3LYP 6-31G FREQ
 ----------------------

 -------
 LiH.LOG
 -------
 Symbolic Z-matrix:
 Charge =  0 Multiplicity = 1

 SCF Done:  E(RB3LYP) =  -8.08088774171     A.U. after    9 cycles
 SCF Done:  E(RB3LYP) =  -8.08089928321     A.U. after    6 cycles
 SCF Done:  E(RB3LYP) =  -8.08090016909     A.U. after    6 cycles
 Optimization completed.
    -- Stationary point found.
 Normal termination of Gaussian 09 at Thu Mar  9 16:32:27 2017.

 -----------------------------------------------------------------
 #N Geom=AllCheck Guess=TCheck SCRF=Check GenChk RB3LYP/6-31G Freq
 -----------------------------------------------------------------

 Structure from the checkpoint file:  "/home/iawad/Gau-14097.chk"
 -------
 LiH.LOG
 -------
 Charge =  0 Multiplicity = 1

                         Standard orientation:
 ---------------------------------------------------------------------
 Center     Atomic      Atomic             Coordinates (Angstroms)
 Number     Number       Type             X           Y           Z
 ---------------------------------------------------------------------
      1          3           0        0.000000    0.000000    0.406367
      2          1           0        0.000000    0.000000   -1.219102
 ---------------------------------------------------------------------

 SCF Done:  E(RB3LYP) =  -8.08090016909     A.U. after    1 cycles

 The electronic state is 1-SG.
 Alpha  occ. eigenvalues --   -2.00946  -0.19631
 Alpha virt. eigenvalues --   -0.04536  -0.00043  -0.00043   0.08141   0.12702
 Alpha virt. eigenvalues --    0.12702   0.13025   0.23265   1.04864

 Mulliken charges:
               1
     1  Li   0.201729
     2  H   -0.201729
 Sum of Mulliken charges =   0.00000

 Dipole moment (field-independent basis, Debye):
    X=              0.0000    Y=              0.0000    Z=              5.6566  Tot=              5.6566
 Quadrupole moment (field-independent basis, Debye-Ang):
   XX=             -5.7140   YY=             -5.7140   ZZ=             -6.8815
   XY=              0.0000   XZ=              0.0000   YZ=              0.0000

  Exact polarizability:  28.758   0.000  28.758   0.000   0.000  24.013
 Approx polarizability:  25.859   0.000  25.859   0.000   0.000  26.290

                      1
                     SG
 Frequencies --   1378.7017
 Red. masses --      1.1293
 Frc consts  --      1.2647
 IR Inten    --    126.1191

 - Thermochemistry -
 -------------------
 Temperature   298.150 Kelvin.  Pressure   1.00000 Atm.
 Atom     1 has atomic number  3 and mass   7.01600

 Molecular mass:     8.02383 amu.
 Principal axes and moments of inertia in atomic units:
                           1         2         3
     Eigenvalues --     0.00000   8.31473   8.31473
           X            0.00000   0.00000   1.00000
           Y            0.00000   1.00000   0.00000
           Z            1.00000   0.00000   0.00000
 This molecule is a prolate symmetric top.
 Rotational symmetry number  1.
 Rotational temperature (Kelvin)     10.41691
 Rotational constant (GHZ):         217.053394
 Zero-point vibrational energy       8246.5 (Joules/Mol)
                                    1.97095 (Kcal/Mol)
 Vibrational temperatures:   1983.64
          (Kelvin)

 Zero-point correction=                           0.003141 (Hartree/Particle)
 Thermal correction to Energy=                    0.005509
 Thermal correction to Enthalpy=                  0.006454
 Thermal correction to Gibbs Free Energy=        -0.012965
 Sum of electronic and zero-point Energies=             -8.077759
 Sum of electronic and thermal Energies=                -8.075391
 Sum of electronic and thermal Enthalpies=              -8.074446
 Sum of electronic and thermal Free Energies=           -8.093865

                     E (Thermal)             CV                S
                      KCal/Mol        Cal/Mol-Kelvin    Cal/Mol-Kelvin
 Total                    3.457              5.082             40.870
 Electronic               0.000              0.000              0.000
 Translational            0.889              2.981             32.198
 Rotational               0.592              1.987              8.653
 Vibrational              1.976              0.114              0.020

 Optimization completed.
    -- Stationary point found.
 Normal termination of Gaussian 09 at Thu Mar  9 16:32:29 2017.
