 Gaussian 09, Revision E.01,
 Gaussian 09:  ES64L-G09RevE.01 30-Nov-2015

 -------------------------
 # b3lyp/6-31g(d) opt freq
 -------------------------

 -----------------------------------
 glo_2w_alpha_ircf_boat1_B3LYP_631Gd
 -----------------------------------
 Symbolic Z-matrix:
 Charge =  0 Multiplicity = 1

 SCF Done:  E(RB3LYP) =  -839.968553606     A.U. after   14 cycles
 SCF Done:  E(RB3LYP) =  -839.786267605     A.U. after   14 cycles
 SCF Done:  E(RB3LYP) =  -839.973873661     A.U. after   12 cycles
 SCF Done:  E(RB3LYP) =  -839.978730281     A.U. after   12 cycles
 SCF Done:  E(RB3LYP) =  -839.979942691     A.U. after   12 cycles
 SCF Done:  E(RB3LYP) =  -839.984500056     A.U. after   11 cycles
 SCF Done:  E(RB3LYP) =  -839.983430292     A.U. after   12 cycles
 SCF Done:  E(RB3LYP) =  -839.986995120     A.U. after    9 cycles
 SCF Done:  E(RB3LYP) =  -839.990063834     A.U. after   11 cycles
 SCF Done:  E(RB3LYP) =  -839.991484660     A.U. after   12 cycles
 SCF Done:  E(RB3LYP) =  -839.992791038     A.U. after    6 cycles
 SCF Done:  E(RB3LYP) =  -839.992791314     A.U. after    6 cycles
 SCF Done:  E(RB3LYP) =  -839.992791605     A.U. after    6 cycles
 SCF Done:  E(RB3LYP) =  -839.992792090     A.U. after    7 cycles
 SCF Done:  E(RB3LYP) =  -839.992792888     A.U. after    7 cycles
 SCF Done:  E(RB3LYP) =  -839.992793700     A.U. after    7 cycles
 SCF Done:  E(RB3LYP) =  -839.992794356     A.U. after    7 cycles
 SCF Done:  E(RB3LYP) =  -839.992794777     A.U. after    7 cycles
 SCF Done:  E(RB3LYP) =  -839.992795125     A.U. after    6 cycles
 Optimization completed.
    -- Stationary point found.
 Normal termination of Gaussian 09 at Sun Jan 15 22:08:17 2017.

 --------------------------------------------------------------------
 #N Geom=AllCheck Guess=TCheck SCRF=Check GenChk RB3LYP/6-31G(d) Freq
 --------------------------------------------------------------------

 Structure from the checkpoint file:  "/scratch/10464856.yak.local/Gau-23692.chk"
 -----------------------------------
 glo_2w_alpha_ircf_boat1_B3LYP_631Gd
 -----------------------------------
 Charge =  0 Multiplicity = 1

                         Standard orientation:
 ---------------------------------------------------------------------
 Center     Atomic      Atomic             Coordinates (Angstroms)
 Number     Number       Type             X           Y           Z
 ---------------------------------------------------------------------
      1          1           0       -1.252486   -1.038800    1.305140
      2          6           0       -1.180979   -0.860507    0.225859
      3          6           0       -0.500726    1.532547    0.293533
      4          6           0        0.694320   -0.156652   -1.182688
      5          6           0        0.667402    1.305034   -0.676623
      6          8           0        0.197399   -1.052051   -0.125996
      7          6           0       -1.656417    0.588353   -0.013444
      8          1           0        0.514640    1.955537   -1.551734
      9          1           0       -1.967461    0.725028   -1.062688
     10          6           0       -2.046464   -1.886422   -0.506554
     11          1           0       -1.725953   -2.902749   -0.239538
     12          1           0       -1.926296   -1.764531   -1.593495
     13          1           0       -0.137253    1.294771    1.306520
     14          8           0       -3.400266   -1.643236   -0.107979
     15          1           0       -3.986140   -2.217653   -0.622332
     16          8           0        1.914784    1.574441   -0.061150
     17          1           0        1.896475    2.493725    0.247291
     18          8           0       -0.895670    2.893154    0.212756
     19          1           0       -1.720910    2.959775    0.723466
     20          8           0       -2.728340    0.929560    0.853602
     21          1           0       -3.434574    0.283479    0.673336
     22          1           0        0.000505   -0.254659   -2.027712
     23          8           0        1.911616   -0.597401   -1.600776
     24          8           0        2.020035   -1.320419    1.988403
     25          1           0        2.042975   -2.278334    2.133109
     26          1           0        3.428121   -0.767625    0.966653
     27          1           0        1.355969   -1.200888    1.272065
     28          8           0        3.992222   -0.607433    0.172745
     29          1           0        4.322915   -1.487936   -0.062036
     30          1           0        2.632416   -0.346180   -0.961391
 ---------------------------------------------------------------------

 SCF Done:  E(RB3LYP) =  -839.992795125     A.U. after    1 cycles

 The electronic state is 1-A.
 Alpha  occ. eigenvalues --  -19.17984 -19.16716 -19.15186 -19.14565 -19.14405
 Alpha  occ. eigenvalues --  -19.14329 -19.13253 -19.12715 -10.28685 -10.25321
 Alpha  occ. eigenvalues --  -10.25093 -10.24366 -10.23597 -10.23448  -1.06728
 Alpha  occ. eigenvalues --   -1.04880  -1.03502  -1.02261  -1.00694  -1.00283
 Alpha  occ. eigenvalues --   -0.99897  -0.98032  -0.78383  -0.76757  -0.69744
 Alpha  occ. eigenvalues --   -0.64469  -0.62456  -0.57647  -0.55660  -0.55313
 Alpha  occ. eigenvalues --   -0.52912  -0.52145  -0.50614  -0.50280  -0.48690
 Alpha  occ. eigenvalues --   -0.47475  -0.46980  -0.45521  -0.43684  -0.42554
 Alpha  occ. eigenvalues --   -0.41905  -0.40746  -0.39180  -0.38492  -0.36762
 Alpha  occ. eigenvalues --   -0.36508  -0.35491  -0.34271  -0.33511  -0.32560
 Alpha  occ. eigenvalues --   -0.30116  -0.29988  -0.28861  -0.28463  -0.27561
 Alpha  occ. eigenvalues --   -0.27277  -0.26768  -0.25625
 Alpha virt. eigenvalues --    0.03483   0.05977   0.07445   0.07806   0.09907
 Alpha virt. eigenvalues --    0.10436   0.11903   0.12950   0.13376   0.13868
 Alpha virt. eigenvalues --    0.15407   0.15785   0.16274   0.17547   0.18488

 Mulliken charges:
               1
     1  H    0.156752
     2  C    0.111386
     3  C    0.115228
     4  C    0.328315
     5  C    0.110194
     6  O   -0.542497
     7  C    0.086253
     8  H    0.140477
     9  H    0.120672
    10  C   -0.049460
    11  H    0.144248
    12  H    0.138191
    13  H    0.139596
    14  O   -0.637649
    15  H    0.409986
    16  O   -0.636374
    17  H    0.410230
    18  O   -0.656261
    19  H    0.412525
    20  O   -0.667350
    21  H    0.423060
    22  H    0.124253
    23  O   -0.655326
    24  O   -0.816576
    25  H    0.387479
    26  H    0.429286
    27  H    0.434742
    28  O   -0.806001
    29  H    0.382150
    30  H    0.462472
 Sum of Mulliken charges =   0.00000

 Dipole moment (field-independent basis, Debye):
    X=             -4.0809    Y=             -3.8167    Z=             -0.5074  Tot=              5.6106
 Quadrupole moment (field-independent basis, Debye-Ang):
   XX=            -80.4125   YY=            -71.7132   ZZ=            -86.4387
   XY=              1.6858   XZ=              7.2300   YZ=             -0.4757

  Exact polarizability: 108.575   1.528  94.334  -1.932   1.125  81.036
 Approx polarizability: 137.686  -1.558 124.395  -3.269   1.125 121.138

                      1                      2                      3
                      A                      A                      A
 Frequencies --     10.0425                40.6367                50.6988
 Red. masses --      5.3769                 6.2439                 6.4026
 Frc consts  --      0.0003                 0.0061                 0.0097
 IR Inten    --      4.7121                 0.7982                 0.3902

                      4                      5                      6
                      A                      A                      A
 Frequencies --     73.4193                98.5780               123.1597
 Red. masses --      5.6400                 6.7824                 5.1491
 Frc consts  --      0.0179                 0.0388                 0.0460
 IR Inten    --      2.0523                 5.4696                14.8284

                      7                      8                      9
                      A                      A                      A
 Frequencies --    138.5178               176.9238               202.6740
 Red. masses --      3.8649                 4.9686                 4.7787
 Frc consts  --      0.0437                 0.0916                 0.1157
 IR Inten    --     10.7238                 3.7618                 1.3664

                     10                     11                     12
                      A                      A                      A
 Frequencies --    227.9699               246.3174               250.5387
 Red. masses --      2.6610                 3.8296                 1.5452
 Frc consts  --      0.0815                 0.1369                 0.0571
 IR Inten    --     38.4378                13.4240                43.4112

                     13                     14                     15
                      A                      A                      A
 Frequencies --    261.8627               270.9440               277.1074
 Red. masses --      2.0964                 2.2139                 3.0653
 Frc consts  --      0.0847                 0.0958                 0.1387
 IR Inten    --     12.6578                 3.6677                 9.1282

                     16                     17                     18
                      A                      A                      A
 Frequencies --    286.9371               307.4689               312.1521
 Red. masses --      1.1855                 1.4346                 1.5488
 Frc consts  --      0.0575                 0.0799                 0.0889
 IR Inten    --    168.0542                66.6425                 6.4563

                     19                     20                     21
                      A                      A                      A
 Frequencies --    323.2700               359.2181               393.7953
 Red. masses --      2.9843                 4.3069                 1.7120
 Frc consts  --      0.1837                 0.3274                 0.1564
 IR Inten    --     24.7132                32.6861               154.8117

                     22                     23                     24
                      A                      A                      A
 Frequencies --    400.5549               418.4399               444.8286
 Red. masses --      6.9171                 3.6190                 1.4076
 Frc consts  --      0.6539                 0.3733                 0.1641
 IR Inten    --      1.2095                21.2217               122.9910

                     25                     26                     27
                      A                      A                      A
 Frequencies --    458.1983               476.1360               495.8441
 Red. masses --      2.1918                 1.3466                 3.7680
 Frc consts  --      0.2711                 0.1799                 0.5458
 IR Inten    --     72.3940                64.8499                16.2743

                     28                     29                     30
                      A                      A                      A
 Frequencies --    516.0202               533.2077               598.2573
 Red. masses --      2.3895                 1.3143                 3.2452
 Frc consts  --      0.3749                 0.2202                 0.6843
 IR Inten    --     16.2051                92.8079                10.4813

                     31                     32                     33
                      A                      A                      A
 Frequencies --    670.4350               696.5408               769.6847
 Red. masses --      1.6689                 2.1844                 3.0490
 Frc consts  --      0.4420                 0.6244                 1.0642
 IR Inten    --     86.4241                54.0169               101.0620

                     34                     35                     36
                      A                      A                      A
 Frequencies --    785.6352               834.5417               912.2182
 Red. masses --      1.1391                 3.7506                 1.8709
 Frc consts  --      0.4142                 1.5390                 0.9173
 IR Inten    --    204.5806                35.6467                 8.5673

                     37                     38                     39
                      A                      A                      A
 Frequencies --    965.1538               978.8432              1014.2925
 Red. masses --      4.0362                 1.0897                 3.1354
 Frc consts  --      2.2152                 0.6151                 1.9005
 IR Inten    --    121.7306               130.2738                11.8465

                     40                     41                     42
                      A                      A                      A
 Frequencies --   1047.4557              1063.3196              1068.5837
 Red. masses --      3.2273                 4.9025                 5.7685
 Frc consts  --      2.0862                 3.2659                 3.8809
 IR Inten    --     64.9996                11.4257               264.3827

                     43                     44                     45
                      A                      A                      A
 Frequencies --   1102.0578              1115.0707              1132.2891
 Red. masses --      2.7445                 2.9066                 3.4076
 Frc consts  --      1.9639                 2.1293                 2.5741
 IR Inten    --     25.6762                25.4442               111.2091

                     46                     47                     48
                      A                      A                      A
 Frequencies --   1148.1116              1150.1707              1217.9610
 Red. masses --      3.0948                 4.2072                 1.1683
 Frc consts  --      2.4036                 3.2792                 1.0211
 IR Inten    --     12.2071                22.3853                16.2884

                     49                     50                     51
                      A                      A                      A
 Frequencies --   1232.9484              1241.8159              1255.1456
 Red. masses --      1.6028                 1.4342                 1.2254
 Frc consts  --      1.4355                 1.3031                 1.1374
 IR Inten    --    154.7773                28.7044                67.3008

                     52                     53                     54
                      A                      A                      A
 Frequencies --   1265.6988              1278.5941              1335.1039
 Red. masses --      1.2707                 1.1548                 1.2279
 Frc consts  --      1.1993                 1.1123                 1.2896
 IR Inten    --      3.1459                37.4660                38.7850

                     55                     56                     57
                      A                      A                      A
 Frequencies --   1341.6733              1376.9665              1392.8008
 Red. masses --      1.2842                 1.2033                 1.2220
 Frc consts  --      1.3620                 1.3442                 1.3967
 IR Inten    --     17.8260                21.7071                17.4378

                     58                     59                     60
                      A                      A                      A
 Frequencies --   1395.0981              1409.5554              1411.4921
 Red. masses --      1.2600                 1.3699                 1.4207
 Frc consts  --      1.4449                 1.6036                 1.6677
 IR Inten    --     76.2935                 1.8116                 4.2990

                     61                     62                     63
                      A                      A                      A
 Frequencies --   1441.1605              1456.2011              1458.9851
 Red. masses --      1.6106                 1.5377                 1.4217
 Frc consts  --      1.9708                 1.9211                 1.7831
 IR Inten    --     11.1970                20.9384                 0.1757

                     64                     65                     66
                      A                      A                      A
 Frequencies --   1481.0504              1499.7698              1548.4857
 Red. masses --      1.5593                 1.1721                 1.0882
 Frc consts  --      2.0152                 1.5533                 1.5373
 IR Inten    --      4.2087               185.3375                 5.2459

                     67                     68                     69
                      A                      A                      A
 Frequencies --   1725.0391              1742.8282              2981.4077
 Red. masses --      1.0755                 1.0772                 1.0818
 Frc consts  --      1.8857                 1.9277                 5.6657
 IR Inten    --     40.3657                99.5566                10.4181

                     70                     71                     72
                      A                      A                      A
 Frequencies --   3000.5188              3013.8619              3016.5029
 Red. masses --      1.0837                 1.0792                 1.0644
 Frc consts  --      5.7486                 5.7754                 5.7066
 IR Inten    --     22.4279                37.3743                30.4901

                     73                     74                     75
                      A                      A                      A
 Frequencies --   3046.7122              3056.7676              3077.6818
 Red. masses --      1.0870                 1.0994                 1.0929
 Frc consts  --      5.9449                 6.0527                 6.0995
 IR Inten    --     98.9515                38.3456                51.7494

                     76                     77                     78
                      A                      A                      A
 Frequencies --   3304.0470              3468.0494              3528.7099
 Red. masses --      1.0693                 1.0594                 1.0574
 Frc consts  --      6.8778                 7.5072                 7.7578
 IR Inten    --    524.5342               649.7530               544.7438

                     79                     80                     81
                      A                      A                      A
 Frequencies --   3693.4225              3714.7568              3754.7237
 Red. masses --      1.0656                 1.0653                 1.0664
 Frc consts  --      8.5644                 8.6616                 8.8581
 IR Inten    --    112.4581                36.1201                36.3823

                     82                     83                     84
                      A                      A                      A
 Frequencies --   3769.1509              3788.0954              3795.1950
 Red. masses --      1.0668                 1.0688                 1.0693
 Frc consts  --      8.9292                 9.0361                 9.0744
 IR Inten    --     29.6301                35.3702                65.1310

 - Thermochemistry -
 -------------------
 Temperature   298.150 Kelvin.  Pressure   1.00000 Atm.
 Atom     1 has atomic number  1 and mass   1.00783

 Molecular mass:   216.08452 amu.
 Principal axes and moments of inertia in atomic units:
                           1         2         3
     Eigenvalues --  2173.740474026.024495001.53894
           X            0.99994   0.00076   0.01121
           Y           -0.00069   0.99998  -0.00664
           Z           -0.01121   0.00663   0.99992
 This molecule is an asymmetric top.
 Rotational symmetry number  1.
 Warning -- assumption of classical behavior for rotation
           may cause significant error
 Rotational temperatures (Kelvin)      0.03985     0.02151     0.01732
 Rotational constants (GHZ):           0.83025     0.44827     0.36084
 Zero-point vibrational energy     650446.1 (Joules/Mol)
                                  155.46035 (Kcal/Mol)
 Warning -- explicit consideration of  30 degrees of freedom as
           vibrations may cause significant error
 Vibrational temperatures:     14.45    58.47    72.94   105.63   141.83
          (Kelvin)            177.20   199.30   254.55   291.60   328.00
                              354.40   360.47   376.76   389.83   398.70
                              412.84   442.38   449.12   465.11   516.83
                              566.58   576.31   602.04   640.01   659.24
                              685.05   713.41   742.44   767.17   860.76
                              964.61  1002.17  1107.40  1130.35  1200.72
                             1312.48  1388.64  1408.34  1459.34  1507.05
                             1529.88  1537.45  1585.61  1604.34  1629.11
                             1651.87  1654.84  1752.37  1773.94  1786.69
                             1805.87  1821.06  1839.61  1920.91  1930.37
                             1981.15  2003.93  2007.23  2028.03  2030.82
                             2073.51  2095.15  2099.15  2130.90  2157.83
                             2227.92  2481.94  2507.54  4289.58  4317.07
                             4336.27  4340.07  4383.53  4398.00  4428.09
                             4753.78  4989.74  5077.02  5314.00  5344.70
                             5402.20  5422.96  5450.22  5460.43

 Zero-point correction=                           0.247742 (Hartree/Particle)
 Thermal correction to Energy=                    0.265592
 Thermal correction to Enthalpy=                  0.266537
 Thermal correction to Gibbs Free Energy=         0.201450
 Sum of electronic and zero-point Energies=           -839.745053
 Sum of electronic and thermal Energies=              -839.727203
 Sum of electronic and thermal Enthalpies=            -839.726258
 Sum of electronic and thermal Free Energies=         -839.791345

                     E (Thermal)             CV                S
                      KCal/Mol        Cal/Mol-Kelvin    Cal/Mol-Kelvin
 Total                  166.662             65.154            136.987
 Electronic               0.000              0.000              0.000
 Translational            0.889              2.981             42.015
 Rotational               0.889              2.981             32.148
 Vibrational            164.884             59.192             62.823
 Vibration     1          0.593              1.987              8.003
 Vibration     2          0.594              1.981              5.228
 Vibration     3          0.595              1.977              4.790
 Vibration     4          0.599              1.967              4.060
 Vibration     5          0.604              1.950              3.482
 Vibration     6          0.610              1.930              3.050
 Vibration     7          0.614              1.915              2.824
 Vibration     8          0.628              1.871              2.361
 Vibration     9          0.639              1.836              2.109
 Vibration    10          0.651              1.798              1.895
 Vibration    11          0.661              1.769              1.757
 Vibration    12          0.663              1.762              1.727
 Vibration    13          0.669              1.743              1.649
 Vibration    14          0.675              1.727              1.590
 Vibration    15          0.678              1.716              1.551
 Vibration    16          0.684              1.698              1.492
 Vibration    17          0.697              1.660              1.376
 Vibration    18          0.700              1.651              1.351
 Vibration    19          0.708              1.629              1.294
 Vibration    20          0.734              1.556              1.125
 Vibration    21          0.761              1.483              0.986
 Vibration    22          0.766              1.469              0.961
 Vibration    23          0.781              1.430              0.897
 Vibration    24          0.804              1.372              0.812
 Vibration    25          0.816              1.343              0.771
 Vibration    26          0.833              1.303              0.721
 Vibration    27          0.851              1.259              0.669
 Vibration    28          0.871              1.215              0.619
 Vibration    29          0.888              1.177              0.580
 Vibration    30          0.956              1.035              0.453

 Normal termination of Gaussian 09 at Sun Jan 15 22:39:31 2017.
