 Gaussian 09, Revision E.01,
 Gaussian 09:  ES64L-G09RevE.01 30-Nov-2015

 -------------------------
 # b3lyp/6-31g(d) opt freq
 -------------------------

 ----------------------------------
 glo_2w_beta_ircr_boat1_B3LYP_631Gd
 ----------------------------------
 Symbolic Z-matrix:
 Charge =  0 Multiplicity = 1

 SCF Done:  E(RB3LYP) =  -839.970537608     A.U. after   14 cycles
 SCF Done:  E(RB3LYP) =  -839.974432537     A.U. after   13 cycles
 SCF Done:  E(RB3LYP) =  -839.979834059     A.U. after   13 cycles
 SCF Done:  E(RB3LYP) =  -839.985814555     A.U. after   13 cycles
 SCF Done:  E(RB3LYP) =  -839.988961691     A.U. after   13 cycles
 SCF Done:  E(RB3LYP) =  -839.990159461     A.U. after   12 cycles
 SCF Done:  E(RB3LYP) =  -839.991051215     A.U. after   13 cycles
 SCF Done:  E(RB3LYP) =  -839.992085088     A.U. after   13 cycles
 SCF Done:  E(RB3LYP) =  -839.992918559     A.U. after   13 cycles
 SCF Done:  E(RB3LYP) =  -839.993296464     A.U. after   12 cycles
 SCF Done:  E(RB3LYP) =  -840.001061143     A.U. after    9 cycles
 SCF Done:  E(RB3LYP) =  -840.001068371     A.U. after    9 cycles
 SCF Done:  E(RB3LYP) =  -840.001071752     A.U. after    8 cycles
 SCF Done:  E(RB3LYP) =  -840.001074098     A.U. after    8 cycles
 SCF Done:  E(RB3LYP) =  -840.001076614     A.U. after    8 cycles
 SCF Done:  E(RB3LYP) =  -840.001078371     A.U. after    8 cycles
 SCF Done:  E(RB3LYP) =  -840.001079065     A.U. after    7 cycles
 SCF Done:  E(RB3LYP) =  -840.001079299     A.U. after    7 cycles
 SCF Done:  E(RB3LYP) =  -840.001079486     A.U. after    7 cycles
 Optimization completed.
    -- Stationary point found.
 Normal termination of Gaussian 09 at Sun Jan 15 23:04:35 2017.

 --------------------------------------------------------------------
 #N Geom=AllCheck Guess=TCheck SCRF=Check GenChk RB3LYP/6-31G(d) Freq
 --------------------------------------------------------------------

 Structure from the checkpoint file:  "/scratch/10464857.yak.local/Gau-1450.chk"
 ----------------------------------
 glo_2w_beta_ircr_boat1_B3LYP_631Gd
 ----------------------------------
 Charge =  0 Multiplicity = 1

                         Standard orientation:
 ---------------------------------------------------------------------
 Center     Atomic      Atomic             Coordinates (Angstroms)
 Number     Number       Type             X           Y           Z
 ---------------------------------------------------------------------
      1          1           0        1.865053   -1.397596    1.211577
      2          6           0        1.659373   -0.461452    0.678550
      3          6           0       -0.763631   -1.206932    0.511407
      4          6           0       -2.558461    0.413606   -0.147468
      5          6           0       -2.102019   -1.013661   -0.286488
      6          8           0        1.337337    0.506787    1.655739
      7          6           0        0.460000   -0.700014   -0.267130
      8          1           0       -3.317665    0.581467    0.642739
      9          1           0       -1.907410   -1.229811   -1.348629
     10          1           0        0.210981    0.254558   -0.755100
     11          6           0        2.928865   -0.032740   -0.068092
     12          1           0        3.717202    0.160146    0.670943
     13          1           0        2.732531    0.898544   -0.617405
     14          8           0       -2.105523    1.335024   -0.807408
     15          1           0       -0.827448   -0.695416    1.475449
     16          8           0        3.326436   -1.086891   -0.966184
     17          1           0        4.002511   -0.741452   -1.568027
     18          8           0       -3.099311   -1.848945    0.254232
     19          1           0       -2.604879   -2.618779    0.599446
     20          8           0       -0.624974   -2.594835    0.782270
     21          1           0       -0.137203   -2.932210    0.000526
     22          8           0        0.717192   -1.704160   -1.253975
     23          1           0        1.675515   -1.669488   -1.455164
     24          8           0        1.252994    2.948090    0.355186
     25          1           0       -1.747882    3.088651   -0.408004
     26          1           0        1.237463    1.380145    1.202152
     27          1           0        1.603793    3.581833    0.998750
     28          8           0       -1.232980    3.915224   -0.285195
     29          1           0        0.353184    3.298548    0.127627
     30          1           0       -1.169882    4.285673   -1.178874
 ---------------------------------------------------------------------

 SCF Done:  E(RB3LYP) =  -840.001079486     A.U. after    1 cycles

 The electronic state is 1-A.
 Alpha  occ. eigenvalues --  -19.17829 -19.17482 -19.16071 -19.15458 -19.14684
 Alpha  occ. eigenvalues --  -19.14580 -19.14166 -19.12539 -10.29513 -10.24307
 Alpha  occ. eigenvalues --  -10.24286 -10.23840 -10.23529 -10.23246  -1.07134
 Alpha  occ. eigenvalues --   -1.05067  -1.04079  -1.02092  -1.01825  -1.00692
 Alpha  occ. eigenvalues --   -1.00018  -0.99510  -0.77514  -0.74474  -0.69806
 Alpha  occ. eigenvalues --   -0.63364  -0.60214  -0.58661  -0.54418  -0.54114
 Alpha  occ. eigenvalues --   -0.52904  -0.52600  -0.51360  -0.49605  -0.48315
 Alpha  occ. eigenvalues --   -0.47392  -0.46724  -0.44858  -0.44391  -0.43276
 Alpha  occ. eigenvalues --   -0.41203  -0.40766  -0.40071  -0.39500  -0.38842
 Alpha  occ. eigenvalues --   -0.37751  -0.35702  -0.34151  -0.33685  -0.32318
 Alpha  occ. eigenvalues --   -0.31558  -0.30514  -0.29726  -0.29187  -0.27948
 Alpha  occ. eigenvalues --   -0.27299  -0.26323  -0.25114
 Alpha virt. eigenvalues --   -0.04951   0.04557   0.05376   0.08638   0.08980
 Alpha virt. eigenvalues --    0.12326   0.12545   0.13438   0.14188   0.14778
 Alpha virt. eigenvalues --    0.15377   0.15865   0.17613   0.18243   0.18905

 Mulliken charges:
               1
     1  H    0.149817
     2  C    0.107245
     3  C    0.091366
     4  C    0.247021
     5  C    0.077659
     6  O   -0.675575
     7  C    0.089491
     8  H    0.147197
     9  H    0.161780
    10  H    0.139385
    11  C   -0.086301
    12  H    0.150000
    13  H    0.154874
    14  O   -0.421919
    15  H    0.170424
    16  O   -0.638906
    17  H    0.409348
    18  O   -0.657635
    19  H    0.416647
    20  O   -0.654986
    21  H    0.418249
    22  O   -0.692278
    23  H    0.434954
    24  O   -0.827308
    25  H    0.434881
    26  H    0.429685
    27  H    0.396370
    28  O   -0.803364
    29  H    0.430324
    30  H    0.401555
 Sum of Mulliken charges =  -0.00000

 Dipole moment (field-independent basis, Debye):
    X=              2.5587    Y=              2.6699    Z=             -2.4024  Tot=              4.4098
 Quadrupole moment (field-independent basis, Debye-Ang):
   XX=            -76.3683   YY=            -78.3764   ZZ=            -84.4508
   XY=             -0.3008   XZ=             -4.7537   YZ=             -1.0930

  Exact polarizability: 104.931   0.646 106.317  -3.905  -2.657  79.274
 Approx polarizability: 127.500   0.536 147.274  -6.895  -7.190 121.398

                      1                      2                      3
                      A                      A                      A
 Frequencies --     35.5923                42.8715                61.8769
 Red. masses --      5.3915                 6.5483                 6.7270
 Frc consts  --      0.0040                 0.0071                 0.0152
 IR Inten    --      0.1239                 0.5587                 1.1381

                      4                      5                      6
                      A                      A                      A
 Frequencies --     68.0568                73.4715                78.3861
 Red. masses --      7.7455                 6.0913                 5.3429
 Frc consts  --      0.0211                 0.0194                 0.0193
 IR Inten    --      0.6033                 1.6169                 6.8095

                      7                      8                      9
                      A                      A                      A
 Frequencies --    106.9837               144.9364               155.2439
 Red. masses --      5.2219                 4.7305                 2.8754
 Frc consts  --      0.0352                 0.0585                 0.0408
 IR Inten    --      6.4491                 4.6008                 2.2915

                     10                     11                     12
                      A                      A                      A
 Frequencies --    184.2721               193.6946               223.7165
 Red. masses --      4.9311                 4.4520                 5.0322
 Frc consts  --      0.0987                 0.0984                 0.1484
 IR Inten    --      8.6945                19.7532                 9.5191

                     13                     14                     15
                      A                      A                      A
 Frequencies --    257.1452               263.5505               281.4404
 Red. masses --      3.6645                 1.1532                 1.9801
 Frc consts  --      0.1428                 0.0472                 0.0924
 IR Inten    --     26.2861                92.5928                50.4338

                     16                     17                     18
                      A                      A                      A
 Frequencies --    292.0411               304.1041               326.6987
 Red. masses --      1.6522                 4.1978                 3.5039
 Frc consts  --      0.0830                 0.2287                 0.2203
 IR Inten    --     38.2584                14.9981                44.3994

                     19                     20                     21
                      A                      A                      A
 Frequencies --    339.6137               353.0146               370.7066
 Red. masses --      1.5256                 3.1044                 1.4629
 Frc consts  --      0.1037                 0.2279                 0.1184
 IR Inten    --    106.9317                 6.2791                42.7989

                     22                     23                     24
                      A                      A                      A
 Frequencies --    396.1503               408.1694               431.0061
 Red. masses --      3.3279                 3.4938                 1.6064
 Frc consts  --      0.3077                 0.3430                 0.1758
 IR Inten    --     12.1436                 8.2080                20.8943

                     25                     26                     27
                      A                      A                      A
 Frequencies --    434.2795               458.6855               495.8182
 Red. masses --      2.6571                 2.3010                 4.2766
 Frc consts  --      0.2952                 0.2852                 0.6194
 IR Inten    --     38.4108                 5.5408                 1.8330

                     28                     29                     30
                      A                      A                      A
 Frequencies --    537.0244               552.6468               619.3901
 Red. masses --      1.1415                 5.2338                 1.9624
 Frc consts  --      0.1940                 0.9418                 0.4436
 IR Inten    --     48.6121                11.2359                44.5630

                     31                     32                     33
                      A                      A                      A
 Frequencies --    635.3799               709.7270               718.3306
 Red. masses --      1.6116                 1.2055                 1.0997
 Frc consts  --      0.3833                 0.3578                 0.3343
 IR Inten    --     27.5357               165.5188               179.7753

                     34                     35                     36
                      A                      A                      A
 Frequencies --    752.5560               789.8124               875.3518
 Red. masses --      2.5693                 1.0664                 3.2513
 Frc consts  --      0.8573                 0.3920                 1.4678
 IR Inten    --     66.9806                84.1178                11.3038

                     37                     38                     39
                      A                      A                      A
 Frequencies --    888.8623               952.7612               958.7771
 Red. masses --      2.2864                 1.2072                 1.8357
 Frc consts  --      1.0643                 0.6456                 0.9943
 IR Inten    --     14.9282               162.9330                59.6349

                     40                     41                     42
                      A                      A                      A
 Frequencies --   1020.1095              1038.4361              1055.9891
 Red. masses --      2.3250                 3.1023                 4.2895
 Frc consts  --      1.4255                 1.9711                 2.8182
 IR Inten    --     28.7989                26.6958               103.3109

                     43                     44                     45
                      A                      A                      A
 Frequencies --   1073.4291              1099.7007              1113.7635
 Red. masses --      2.9840                 3.7240                 4.9143
 Frc consts  --      2.0258                 2.6535                 3.5917
 IR Inten    --     14.8973                38.8825               201.2421

                     46                     47                     48
                      A                      A                      A
 Frequencies --   1123.2215              1143.7676              1158.7784
 Red. masses --      2.7208                 4.0112                 2.9615
 Frc consts  --      2.0224                 3.0917                 2.3429
 IR Inten    --     14.4391                55.7440                 7.9602

                     49                     50                     51
                      A                      A                      A
 Frequencies --   1231.6525              1242.3306              1255.7032
 Red. masses --      1.1785                 1.1956                 1.1557
 Frc consts  --      1.0533                 1.0872                 1.0736
 IR Inten    --     11.5370                10.3792                11.5113

                     52                     53                     54
                      A                      A                      A
 Frequencies --   1271.8440              1301.2073              1339.4625
 Red. masses --      1.3348                 1.1812                 1.1757
 Frc consts  --      1.2721                 1.1783                 1.2429
 IR Inten    --     21.7561                22.1128                49.6143

                     55                     56                     57
                      A                      A                      A
 Frequencies --   1352.1389              1369.7612              1386.9581
 Red. masses --      1.2063                 1.2710                 1.1981
 Frc consts  --      1.2994                 1.4051                 1.3580
 IR Inten    --     15.2288                16.6266               117.8128

                     58                     59                     60
                      A                      A                      A
 Frequencies --   1402.3191              1409.9652              1443.2720
 Red. masses --      1.2876                 1.2611                 1.4719
 Frc consts  --      1.4919                 1.4771                 1.8065
 IR Inten    --     12.8653                22.7976                40.6929

                     61                     62                     63
                      A                      A                      A
 Frequencies --   1459.7272              1473.3553              1489.9506
 Red. masses --      1.3925                 1.1961                 1.4490
 Frc consts  --      1.7482                 1.5299                 1.8952
 IR Inten    --      9.7950               111.1441                39.8280

                     64                     65                     66
                      A                      A                      A
 Frequencies --   1511.9140              1553.8824              1729.9192
 Red. masses --      1.1749                 1.0888                 1.0809
 Frc consts  --      1.5824                 1.5490                 1.9059
 IR Inten    --     79.2635                 3.8457               110.4523

                     67                     68                     69
                      A                      A                      A
 Frequencies --   1747.4840              1794.4419              2975.8448
 Red. masses --      1.0759                 9.3409                 1.0869
 Frc consts  --      1.9357                17.7213                 5.6708
 IR Inten    --     45.8354               181.2326                69.8737

                     70                     71                     72
                      A                      A                      A
 Frequencies --   3017.0614              3025.0433              3033.6320
 Red. masses --      1.0830                 1.0831                 1.0569
 Frc consts  --      5.8082                 5.8395                 5.7310
 IR Inten    --     18.7814                14.4883                32.2793

                     73                     74                     75
                      A                      A                      A
 Frequencies --   3067.5498              3086.3448              3113.5238
 Red. masses --      1.0919                 1.1040                 1.0867
 Frc consts  --      6.0535                 6.1958                 6.2067
 IR Inten    --     22.9656                63.1472                 9.2594

                     76                     77                     78
                      A                      A                      A
 Frequencies --   3348.4681              3433.7820              3560.3079
 Red. masses --      1.0644                 1.0652                 1.0656
 Frc consts  --      7.0313                 7.4001                 7.9585
 IR Inten    --    873.4655               414.2243               454.9245

                     79                     80                     81
                      A                      A                      A
 Frequencies --   3575.3162              3579.4725              3623.2381
 Red. masses --      1.0567                 1.0645                 1.0642
 Frc consts  --      7.9584                 8.0360                 8.2315
 IR Inten    --    616.7744                19.3670                72.6963

                     82                     83                     84
                      A                      A                      A
 Frequencies --   3763.1900              3795.2741              3797.3825
 Red. masses --      1.0667                 1.0672                 1.0703
 Frc consts  --      8.9002                 9.0572                 9.0937
 IR Inten    --     25.2588                42.5229                94.6668

 - Thermochemistry -
 -------------------
 Temperature   298.150 Kelvin.  Pressure   1.00000 Atm.
 Atom     1 has atomic number  1 and mass   1.00783

 Molecular mass:   216.08452 amu.
 Principal axes and moments of inertia in atomic units:
                           1         2         3
     Eigenvalues --  3208.332323505.675535745.07145
           X            0.99987   0.01565  -0.00410
           Y           -0.01565   0.99988   0.00004
           Z            0.00410   0.00003   0.99999
 This molecule is an asymmetric top.
 Rotational symmetry number  1.
 Warning -- assumption of classical behavior for rotation
           may cause significant error
 Rotational temperatures (Kelvin)      0.02700     0.02471     0.01508
 Rotational constants (GHZ):           0.56252     0.51481     0.31414
 Zero-point vibrational energy     646952.8 (Joules/Mol)
                                  154.62543 (Kcal/Mol)
 Warning -- explicit consideration of  30 degrees of freedom as
           vibrations may cause significant error
 Vibrational temperatures:     51.21    61.68    89.03    97.92   105.71
          (Kelvin)            112.78   153.93   208.53   223.36   265.13
                              278.68   321.88   369.97   379.19   404.93
                              420.18   437.54   470.05   488.63   507.91
                              533.36   569.97   587.26   620.12   624.83
                              659.95   713.37   772.66   795.13   891.16
                              914.17  1021.14  1033.52  1082.76  1136.36
                             1259.43  1278.87  1370.81  1379.46  1467.71
                             1494.08  1519.33  1544.42  1582.22  1602.46
                             1616.06  1645.62  1667.22  1772.07  1787.43
                             1806.67  1829.90  1872.14  1927.19  1945.42
                             1970.78  1995.52  2017.62  2028.62  2076.54
                             2100.22  2119.83  2143.70  2175.30  2235.69
                             2488.96  2514.24  2581.80  4281.57  4340.87
                             4352.36  4364.71  4413.51  4440.56  4479.66
                             4817.69  4940.44  5122.48  5144.08  5150.06
                             5213.02  5414.38  5460.55  5463.58

 Zero-point correction=                           0.246411 (Hartree/Particle)
 Thermal correction to Energy=                    0.264822
 Thermal correction to Enthalpy=                  0.265767
 Thermal correction to Gibbs Free Energy=         0.199844
 Sum of electronic and zero-point Energies=           -839.754668
 Sum of electronic and thermal Energies=              -839.736257
 Sum of electronic and thermal Enthalpies=            -839.735313
 Sum of electronic and thermal Free Energies=         -839.801236

                     E (Thermal)             CV                S
                      KCal/Mol        Cal/Mol-Kelvin    Cal/Mol-Kelvin
 Total                  166.179             66.124            138.746
 Electronic               0.000              0.000              0.000
 Translational            0.889              2.981             42.015
 Rotational               0.889              2.981             32.535
 Vibrational            164.401             60.163             64.196
 Vibration     1          0.594              1.982              5.490
 Vibration     2          0.595              1.980              5.122
 Vibration     3          0.597              1.973              4.396
 Vibration     4          0.598              1.969              4.209
 Vibration     5          0.599              1.967              4.058
 Vibration     6          0.600              1.964              3.931
 Vibration     7          0.606              1.944              3.323
 Vibration     8          0.616              1.908              2.738
 Vibration     9          0.620              1.897              2.607
 Vibration    10          0.631              1.861              2.285
 Vibration    11          0.635              1.849              2.192
 Vibration    12          0.649              1.805              1.929
 Vibration    13          0.667              1.751              1.681
 Vibration    14          0.670              1.740              1.638
 Vibration    15          0.681              1.708              1.525
 Vibration    16          0.687              1.689              1.462
 Vibration    17          0.695              1.666              1.394
 Vibration    18          0.710              1.622              1.276
 Vibration    19          0.720              1.596              1.214
 Vibration    20          0.729              1.569              1.153
 Vibration    21          0.743              1.532              1.077
 Vibration    22          0.763              1.478              0.977
 Vibration    23          0.773              1.452              0.933
 Vibration    24          0.792              1.403              0.855
 Vibration    25          0.795              1.396              0.845
 Vibration    26          0.817              1.342              0.770
 Vibration    27          0.851              1.259              0.669
 Vibration    28          0.892              1.168              0.572
 Vibration    29          0.908              1.134              0.539
 Vibration    30          0.979              0.991              0.417

 Normal termination of Gaussian 09 at Mon Jan 16 00:32:16 2017.
