 Gaussian 09, Revision E.01,
 Gaussian 09:  ES64L-G09RevE.01 30-Nov-2015

 ----------------------------------------------------------------------
 # opt=(calcfc,ts,noeigentest,maxcycle=1000,cartesian) b3lyp 6-31g(d) f
 req
 ----------------------------------------------------------------------

 -------------------------------------------
 ./1/glo_2w_alpha_boat1_b3lyp_631Gd_iopt.out
 -------------------------------------------
 Symbolic Z-matrix:
 Charge =  0 Multiplicity = 1

 SCF Done:  E(RB3LYP) =  -839.983042336     A.U. after   14 cycles
 Optimization completed.
    -- Stationary point found.
 Normal termination of Gaussian 09 at Mon Jan 30 07:09:53 2017.

 --------------------------------------------------------------------
 #N Geom=AllCheck Guess=TCheck SCRF=Check GenChk RB3LYP/6-31G(d) Freq
 --------------------------------------------------------------------

 Structure from the checkpoint file:  "/scratch/10499771.yak.local/Gau-11653.chk"
 -------------------------------------------
 ./1/glo_2w_alpha_boat1_b3lyp_631Gd_iopt.out
 -------------------------------------------
 Charge =  0 Multiplicity = 1

                         Standard orientation:
 ---------------------------------------------------------------------
 Center     Atomic      Atomic             Coordinates (Angstroms)
 Number     Number       Type             X           Y           Z
 ---------------------------------------------------------------------
      1          1           0       -1.240273   -1.879585   -0.137690
      2          6           0       -1.141797   -0.806315   -0.343000
      3          6           0        0.043936    1.146199    0.857930
      4          6           0        0.669369    0.507312   -1.506100
      5          6           0        0.131725    1.621760   -0.588580
      6          8           0       -0.099187   -0.720551   -1.312930
      7          6           0       -0.824809   -0.118404    1.003410
      8          1           0       -0.882406    1.885406   -0.928960
      9          1           0       -1.775920    0.167493    1.464870
     10          6           0       -2.498328   -0.390199   -0.931600
     11          1           0       -2.599327   -0.874690   -1.912840
     12          1           0       -2.564122    0.696681   -1.080140
     13          1           0        1.059407    0.907023    1.189510
     14          8           0       -3.485477   -0.842513   -0.008870
     15          1           0       -4.354568   -0.559536   -0.329550
     16          8           0        0.983461    2.740283   -0.697460
     17          1           0        0.701379    3.343082    0.011860
     18          8           0       -0.462407    2.253058    1.611660
     19          1           0       -0.188827    2.139189    2.534590
     20          8           0       -0.114816   -1.016891    1.888930
     21          1           0       -0.766684   -1.605863    2.300590
     22          1           0        0.523178    0.795491   -2.551010
     23          8           0        2.010549    0.236196   -1.376850
     24          1           0        2.261570    0.038037   -0.441050
     25          8           0        2.787953   -0.877811    1.055970
     26          1           0        2.637466   -1.722172    0.569000
     27          1           0        2.082963   -0.903644    1.724590
     28          8           0        1.481660   -2.913146   -0.271460
     29          1           0        0.841880   -2.800828    0.450160
     30          1           0        1.169828   -2.257207   -0.928230
 ---------------------------------------------------------------------

 SCF Done:  E(RB3LYP) =  -839.983042336     A.U. after    1 cycles

 The electronic state is 1-A.
 Alpha  occ. eigenvalues --  -19.18833 -19.17354 -19.17069 -19.16789 -19.14624
 Alpha  occ. eigenvalues --  -19.14433 -19.13388 -19.13338 -10.28763 -10.26166
 Alpha  occ. eigenvalues --  -10.26039 -10.25399 -10.25201 -10.24517  -1.07077
 Alpha  occ. eigenvalues --   -1.05301  -1.04652  -1.04105  -1.01869  -1.00636
 Alpha  occ. eigenvalues --   -0.99940  -0.98533  -0.80011  -0.77264  -0.70774
 Alpha  occ. eigenvalues --   -0.65951  -0.63819  -0.57685  -0.57563  -0.54390
 Alpha  occ. eigenvalues --   -0.53461  -0.52163  -0.51508  -0.50705  -0.49561
 Alpha  occ. eigenvalues --   -0.48646  -0.47541  -0.46898  -0.45147  -0.44823
 Alpha  occ. eigenvalues --   -0.42766  -0.41212  -0.38999  -0.38353  -0.37896
 Alpha  occ. eigenvalues --   -0.36893  -0.36354  -0.35504  -0.34803  -0.32329
 Alpha  occ. eigenvalues --   -0.31776  -0.30224  -0.29827  -0.29184  -0.28680
 Alpha  occ. eigenvalues --   -0.28393  -0.27064  -0.26452
 Alpha virt. eigenvalues --    0.03244   0.04626   0.04912   0.06949   0.08102
 Alpha virt. eigenvalues --    0.09992   0.10591   0.11755   0.12309   0.14648
 Alpha virt. eigenvalues --    0.15373   0.15912   0.17801   0.18097   0.19027

 Mulliken charges:
               1
     1  H    0.138389
     2  C    0.119361
     3  C    0.072919
     4  C    0.340476
     5  C    0.087177
     6  O   -0.542370
     7  C    0.081825
     8  H    0.120969
     9  H    0.170664
    10  C   -0.071634
    11  H    0.150400
    12  H    0.140812
    13  H    0.157857
    14  O   -0.625654
    15  H    0.405208
    16  O   -0.625943
    17  H    0.405646
    18  O   -0.649539
    19  H    0.405807
    20  O   -0.658843
    21  H    0.408936
    22  H    0.149172
    23  O   -0.625587
    24  H    0.437609
    25  O   -0.828083
    26  H    0.421891
    27  H    0.403158
    28  O   -0.809570
    29  H    0.388147
    30  H    0.430800
 Sum of Mulliken charges =  -0.00000

 Dipole moment (field-independent basis, Debye):
    X=             -6.8576    Y=              0.5534    Z=              3.2192  Tot=              7.5958
 Quadrupole moment (field-independent basis, Debye-Ang):
   XX=            -88.1149   YY=            -88.6632   ZZ=            -76.4952
   XY=              2.6785   XZ=              6.3763   YZ=             -0.2839

  Exact polarizability:  98.770   2.357  92.771  -0.960  -1.847  90.371
 Approx polarizability: 133.386   1.394 126.651  -4.274  -3.707 128.225

 ******    1 imaginary frequencies (negative Signs) ******

                      1                      2                      3
                      A                      A                      A
 Frequencies --    -71.8810                49.8196                72.1836
 Red. masses --      4.5223                 6.5738                 6.1971
 Frc consts  --      0.0138                 0.0096                 0.0190
 IR Inten    --     10.2323                 0.7224                 3.2307

                      4                      5                      6
                      A                      A                      A
 Frequencies --     80.8236                97.7543               122.4063
 Red. masses --      5.8295                 5.0097                 4.6106
 Frc consts  --      0.0224                 0.0282                 0.0407
 IR Inten    --      2.2941                 8.6510                 3.9250

                      7                      8                      9
                      A                      A                      A
 Frequencies --    126.6124               164.6050               195.3098
 Red. masses --      6.3263                 5.7254                 2.7470
 Frc consts  --      0.0598                 0.0914                 0.0617
 IR Inten    --      0.3978                 5.1019                12.2246

                     10                     11                     12
                      A                      A                      A
 Frequencies --    223.5314               242.3421               256.4374
 Red. masses --      7.1926                 2.0038                 5.6094
 Frc consts  --      0.2117                 0.0693                 0.2173
 IR Inten    --     17.2152                39.2203                11.0342

                     13                     14                     15
                      A                      A                      A
 Frequencies --    259.9847               264.8530               275.1370
 Red. masses --      2.9393                 3.1024                 2.5302
 Frc consts  --      0.1171                 0.1282                 0.1128
 IR Inten    --     20.0602                26.3990                39.8133

                     16                     17                     18
                      A                      A                      A
 Frequencies --    302.2793               305.8580               308.0047
 Red. masses --      1.4726                 1.3115                 3.0074
 Frc consts  --      0.0793                 0.0723                 0.1681
 IR Inten    --     79.1452                56.4708                10.5569

                     19                     20                     21
                      A                      A                      A
 Frequencies --    341.1795               350.5908               387.2971
 Red. masses --      3.2047                 1.2610                 1.1741
 Frc consts  --      0.2198                 0.0913                 0.1038
 IR Inten    --     25.0655                65.3350                24.4405

                     22                     23                     24
                      A                      A                      A
 Frequencies --    406.9276               449.8707               454.5356
 Red. masses --      3.1730                 1.5644                 2.4153
 Frc consts  --      0.3096                 0.1865                 0.2940
 IR Inten    --     18.0144                82.2277                30.9357

                     25                     26                     27
                      A                      A                      A
 Frequencies --    471.5709               502.5683               511.4735
 Red. masses --      4.1785                 1.1492                 3.7080
 Frc consts  --      0.5475                 0.1710                 0.5715
 IR Inten    --      8.2379                43.2675                 9.3172

                     28                     29                     30
                      A                      A                      A
 Frequencies --    551.4964               563.4218               606.1697
 Red. masses --      4.1163                 3.3995                 1.1599
 Frc consts  --      0.7376                 0.6358                 0.2511
 IR Inten    --     52.8654                30.7939               115.2684

                     31                     32                     33
                      A                      A                      A
 Frequencies --    623.9991               699.2264               721.0313
 Red. masses --      1.1647                 2.3351                 1.3200
 Frc consts  --      0.2672                 0.6726                 0.4043
 IR Inten    --    159.4487                78.0165               247.6742

                     34                     35                     36
                      A                      A                      A
 Frequencies --    774.1184               844.2671               905.5053
 Red. masses --      4.0179                 3.2610                 3.2449
 Frc consts  --      1.4186                 1.3695                 1.5676
 IR Inten    --     62.7719                48.5030                41.9716

                     37                     38                     39
                      A                      A                      A
 Frequencies --    919.1998               988.0545               998.0315
 Red. masses --      3.3297                 1.1592                 2.7518
 Frc consts  --      1.6576                 0.6668                 1.6149
 IR Inten    --     78.9031               106.8836               106.2939

                     40                     41                     42
                      A                      A                      A
 Frequencies --   1022.1567              1056.7800              1072.4879
 Red. masses --      3.2782                 2.5110                 3.1437
 Frc consts  --      2.0180                 1.6522                 2.1305
 IR Inten    --     51.4241                66.6713                39.1161

                     43                     44                     45
                      A                      A                      A
 Frequencies --   1082.2791              1087.6153              1113.5704
 Red. masses --      4.2132                 4.1537                 2.3999
 Frc consts  --      2.9076                 2.8949                 1.7534
 IR Inten    --     66.3077                50.0315               113.0256

                     46                     47                     48
                      A                      A                      A
 Frequencies --   1143.0039              1156.1746              1191.8919
 Red. masses --      2.5842                 4.9851                 2.5003
 Frc consts  --      1.9891                 3.9262                 2.0928
 IR Inten    --    102.7316                41.8725               102.4505

                     49                     50                     51
                      A                      A                      A
 Frequencies --   1232.4919              1241.4973              1252.1370
 Red. masses --      1.2144                 1.1651                 1.1828
 Frc consts  --      1.0869                 1.0580                 1.0926
 IR Inten    --     20.2252                 3.0442                63.8312

                     52                     53                     54
                      A                      A                      A
 Frequencies --   1257.0034              1293.9149              1324.0197
 Red. masses --      1.2007                 1.2351                 1.4214
 Frc consts  --      1.1178                 1.2183                 1.4681
 IR Inten    --     33.2404                21.8072                17.4863

                     55                     56                     57
                      A                      A                      A
 Frequencies --   1345.7977              1354.8629              1368.5462
 Red. masses --      1.3440                 1.2313                 1.2492
 Frc consts  --      1.4342                 1.3317                 1.3785
 IR Inten    --     19.8757                26.7874                 9.9059

                     58                     59                     60
                      A                      A                      A
 Frequencies --   1392.4269              1404.1667              1404.8127
 Red. masses --      1.3911                 1.2661                 1.2804
 Frc consts  --      1.5892                 1.4708                 1.4887
 IR Inten    --     15.5429                 9.5401                15.2882

                     61                     62                     63
                      A                      A                      A
 Frequencies --   1451.5702              1453.4772              1466.4883
 Red. masses --      1.4348                 1.4476                 1.4196
 Frc consts  --      1.7812                 1.8018                 1.7988
 IR Inten    --     11.1609                24.3072                 1.7899

                     64                     65                     66
                      A                      A                      A
 Frequencies --   1473.1099              1501.6014              1552.3997
 Red. masses --      1.4397                 1.1992                 1.0866
 Frc consts  --      1.8408                 1.5932                 1.5429
 IR Inten    --     12.7243                81.1970                 6.5846

                     67                     68                     69
                      A                      A                      A
 Frequencies --   1742.6105              1783.7644              2996.6529
 Red. masses --      1.0822                 1.0730                 1.0802
 Frc consts  --      1.9362                 2.0115                 5.7150
 IR Inten    --    242.2340               105.7359                54.7953

                     70                     71                     72
                      A                      A                      A
 Frequencies --   3025.8784              3048.1106              3068.4366
 Red. masses --      1.0569                 1.0888                 1.1047
 Frc consts  --      5.7015                 5.9604                 6.1281
 IR Inten    --     37.9747                13.8032                61.9881

                     73                     74                     75
                      A                      A                      A
 Frequencies --   3084.0154              3093.1768              3100.5241
 Red. masses --      1.0859                 1.0845                 1.0882
 Frc consts  --      6.0853                 6.1134                 6.1637
 IR Inten    --      5.8852                16.7299                63.7807

                     76                     77                     78
                      A                      A                      A
 Frequencies --   3399.8966              3499.6489              3627.6752
 Red. masses --      1.0682                 1.0600                 1.0532
 Frc consts  --      7.2752                 7.6489                 8.1664
 IR Inten    --    331.0595               332.2611               201.6393

                     79                     80                     81
                      A                      A                      A
 Frequencies --   3712.8592              3745.8234              3753.0723
 Red. masses --      1.0652                 1.0668                 1.0677
 Frc consts  --      8.6520                 8.8188                 8.8607
 IR Inten    --     37.5232                35.7803                54.6094

                     82                     83                     84
                      A                      A                      A
 Frequencies --   3757.3251              3765.5779              3775.7698
 Red. masses --      1.0667                 1.0667                 1.0720
 Frc consts  --      8.8729                 8.9119                 9.0045
 IR Inten    --     32.2082                28.9054                38.2705

 - Thermochemistry -
 -------------------
 Temperature   298.150 Kelvin.  Pressure   1.00000 Atm.
 Atom     1 has atomic number  1 and mass   1.00783

 Molecular mass:   216.08452 amu.
 Principal axes and moments of inertia in atomic units:
                           1         2         3
     Eigenvalues --  2755.664773146.392953905.23112
           X            0.99916  -0.03101   0.02661
           Y            0.03116   0.99950  -0.00541
           Z           -0.02643   0.00624   0.99963
 This molecule is an asymmetric top.
 Rotational symmetry number  1.
 Warning -- assumption of classical behavior for rotation
           may cause significant error
 Rotational temperatures (Kelvin)      0.03143     0.02753     0.02218
 Rotational constants (GHZ):           0.65492     0.57359     0.46213
    1 imaginary frequencies ignored.
 Zero-point vibrational energy     652536.5 (Joules/Mol)
                                  155.95996 (Kcal/Mol)
 Warning -- explicit consideration of  29 degrees of freedom as
           vibrations may cause significant error
 Vibrational temperatures:     71.68   103.86   116.29   140.65   176.12
          (Kelvin)            182.17   236.83   281.01   321.61   348.68
                              368.96   374.06   381.06   395.86   434.91
                              440.06   443.15   490.88   504.42   557.23
                              585.48   647.26   653.97   678.48   723.08
                              735.90   793.48   810.64   872.14   897.79
                             1006.03  1037.40  1113.78  1214.71  1302.82
                             1322.52  1421.59  1435.94  1470.65  1520.47
                             1543.07  1557.16  1564.83  1602.18  1644.53
                             1663.48  1714.86  1773.28  1786.24  1801.54
                             1808.55  1861.65  1904.97  1936.30  1949.34
                             1969.03  2003.39  2020.28  2021.21  2088.48
                             2091.23  2109.95  2119.47  2160.47  2233.55
                             2507.22  2566.44  4311.51  4353.56  4385.55
                             4414.79  4437.20  4450.39  4460.96  4891.69
                             5035.21  5219.41  5341.97  5389.40  5399.83
                             5405.95  5417.82  5432.48

 Zero-point correction=                           0.248538 (Hartree/Particle)
 Thermal correction to Energy=                    0.265375
 Thermal correction to Enthalpy=                  0.266320
 Thermal correction to Gibbs Free Energy=         0.205705
 Sum of electronic and zero-point Energies=           -839.734504
 Sum of electronic and thermal Energies=              -839.717667
 Sum of electronic and thermal Enthalpies=            -839.716723
 Sum of electronic and thermal Free Energies=         -839.777337

                     E (Thermal)             CV                S
                      KCal/Mol        Cal/Mol-Kelvin    Cal/Mol-Kelvin
 Total                  166.526             63.169            127.574
 Electronic               0.000              0.000              0.000
 Translational            0.889              2.981             42.015
 Rotational               0.889              2.981             31.893
 Vibrational            164.748             57.208             53.666
 Vibration     1          0.595              1.978              4.825
 Vibration     2          0.598              1.967              4.093
 Vibration     3          0.600              1.962              3.871
 Vibration     4          0.603              1.951              3.499
 Vibration     5          0.610              1.930              3.062
 Vibration     6          0.611              1.927              2.997
 Vibration     7          0.623              1.886              2.496
 Vibration     8          0.636              1.846              2.177
 Vibration     9          0.649              1.805              1.930
 Vibration    10          0.659              1.775              1.786
 Vibration    11          0.666              1.752              1.686
 Vibration    12          0.668              1.746              1.662
 Vibration    13          0.671              1.737              1.630
 Vibration    14          0.677              1.719              1.564
 Vibration    15          0.694              1.669              1.404
 Vibration    16          0.696              1.663              1.385
 Vibration    17          0.698              1.658              1.373
 Vibration    18          0.721              1.593              1.207
 Vibration    19          0.727              1.574              1.164
 Vibration    20          0.756              1.497              1.011
 Vibration    21          0.772              1.455              0.938
 Vibration    22          0.809              1.361              0.796
 Vibration    23          0.813              1.351              0.782
 Vibration    24          0.829              1.313              0.733
 Vibration    25          0.858              1.244              0.652
 Vibration    26          0.867              1.225              0.630
 Vibration    27          0.907              1.136              0.541
 Vibration    28          0.919              1.110              0.517
 Vibration    29          0.965              1.019              0.439

 Optimization completed.
    -- Stationary point found.
 Normal termination of Gaussian 09 at Mon Jan 30 07:30:51 2017.
