 Gaussian 09, Revision E.01,
 Gaussian 09:  ES64L-G09RevE.01 30-Nov-2015

 ----------------------------------------------------------------------
 # opt=(calcfc,ts,noeigentest,maxcycle=1000,cartesian) b3lyp 6-31g(d) f
 req
 ----------------------------------------------------------------------

 -------------------------------------------
 ./1/glo_1w_alpha_boat1_b3lyp_631Gd_iopt.out
 -------------------------------------------
 Symbolic Z-matrix:
 Charge =  0 Multiplicity = 1

 SCF Done:  E(RB3LYP) =  -839.985172006     A.U. after   14 cycles
 Optimization completed.
    -- Stationary point found.
 Normal termination of Gaussian 09 at Mon Jan 30 07:12:00 2017.

 --------------------------------------------------------------------
 #N Geom=AllCheck Guess=TCheck SCRF=Check GenChk RB3LYP/6-31G(d) Freq
 --------------------------------------------------------------------

 Structure from the checkpoint file:  "/scratch/10499774.yak.local/Gau-1347.chk"
 -------------------------------------------
 ./1/glo_1w_alpha_boat1_b3lyp_631Gd_iopt.out
 -------------------------------------------
 Charge =  0 Multiplicity = 1

                         Standard orientation:
 ---------------------------------------------------------------------
 Center     Atomic      Atomic             Coordinates (Angstroms)
 Number     Number       Type             X           Y           Z
 ---------------------------------------------------------------------
      1          1           0       -1.332129    1.381882    1.461880
      2          6           0       -1.240559    0.869422    0.497210
      3          6           0        0.842670   -0.183860   -0.533810
      4          6           0       -1.299801   -1.518948   -0.221060
      5          6           0       -0.209561   -1.055549   -1.223050
      6          8           0       -1.512170   -0.496468    0.802300
      7          6           0        0.199831    1.108321   -0.024400
      8          1           0       -0.694300   -0.442898   -2.004660
      9          1           0        0.176062    1.834771   -0.844610
     10          6           0       -2.314229    1.482923   -0.408710
     11          1           0       -3.300849    1.222494   -0.000490
     12          1           0       -2.250159    1.082993   -1.431720
     13          1           0        1.236070   -0.734920    0.331000
     14          8           0       -2.083737    2.889253   -0.389050
     15          1           0       -2.707537    3.310143   -0.998960
     16          8           0        0.397638   -2.185509   -1.802670
     17          1           0        1.230099   -1.840500   -2.176160
     18          8           0        1.866350    0.047629   -1.487340
     19          1           0        2.677511    0.310769   -0.992630
     20          8           0        1.048252    1.618130    1.033850
     21          1           0        0.719392    2.500060    1.273230
     22          1           0       -2.249351   -1.684087   -0.741080
     23          8           0       -1.023542   -2.697368    0.431510
     24          1           0       -0.172922   -2.609419    0.906370
     25          8           0        0.490739   -1.562379    2.572150
     26          1           0       -0.352481   -1.141299    2.316810
     27          1           0        1.117140   -0.822600    2.603390
     28          8           0        3.699981    1.140618    0.249890
     29          1           0        2.879821    1.469619    0.677850
     30          1           0        4.085432    1.917898   -0.182400
 ---------------------------------------------------------------------

 SCF Done:  E(RB3LYP) =  -839.985172006     A.U. after    1 cycles

 The electronic state is 1-A.
 Alpha  occ. eigenvalues --  -19.19051 -19.17212 -19.16818 -19.16058 -19.14174
 Alpha  occ. eigenvalues --  -19.14126 -19.13923 -19.13597 -10.28776 -10.25844
 Alpha  occ. eigenvalues --  -10.25537 -10.25288 -10.24093 -10.23806  -1.07226
 Alpha  occ. eigenvalues --   -1.05512  -1.04282  -1.03044  -1.01767  -1.00611
 Alpha  occ. eigenvalues --   -0.99782  -0.99503  -0.79339  -0.76583  -0.70625
 Alpha  occ. eigenvalues --   -0.64884  -0.63359  -0.57314  -0.56854  -0.54683
 Alpha  occ. eigenvalues --   -0.54012  -0.53335  -0.51586  -0.50389  -0.49097
 Alpha  occ. eigenvalues --   -0.48328  -0.47253  -0.46082  -0.45026  -0.44493
 Alpha  occ. eigenvalues --   -0.42547  -0.40569  -0.39397  -0.38295  -0.37866
 Alpha  occ. eigenvalues --   -0.36717  -0.35668  -0.35296  -0.34404  -0.32333
 Alpha  occ. eigenvalues --   -0.31512  -0.30973  -0.30116  -0.29512  -0.28553
 Alpha  occ. eigenvalues --   -0.27277  -0.26480  -0.25994
 Alpha virt. eigenvalues --    0.03470   0.04538   0.06567   0.07243   0.07908
 Alpha virt. eigenvalues --    0.09445   0.10401   0.12190   0.13994   0.14451
 Alpha virt. eigenvalues --    0.15355   0.15432   0.17292   0.18045   0.18783

 Mulliken charges:
               1
     1  H    0.149454
     2  C    0.111534
     3  C    0.085963
     4  C    0.348159
     5  C    0.087599
     6  O   -0.532900
     7  C    0.096965
     8  H    0.112104
     9  H    0.159529
    10  C   -0.071034
    11  H    0.150388
    12  H    0.138243
    13  H    0.135559
    14  O   -0.629059
    15  H    0.405463
    16  O   -0.633744
    17  H    0.411677
    18  O   -0.693411
    19  H    0.428862
    20  O   -0.664292
    21  H    0.411067
    22  H    0.141128
    23  O   -0.604847
    24  H    0.424560
    25  O   -0.801918
    26  H    0.418194
    27  H    0.395096
    28  O   -0.801949
    29  H    0.424723
    30  H    0.396886
 Sum of Mulliken charges =  -0.00000

 Dipole moment (field-independent basis, Debye):
    X=             -0.8010    Y=              7.6666    Z=             -1.1850  Tot=              7.7989
 Quadrupole moment (field-independent basis, Debye-Ang):
   XX=            -75.8443   YY=            -85.9438   ZZ=            -86.9444
   XY=             -0.8987   XZ=              3.7781   YZ=              1.5351

  Exact polarizability:  99.631  -0.034  99.841   2.427   2.693  83.820
 Approx polarizability: 129.445   1.224 136.041   3.108   2.554 121.862

 ******    1 imaginary frequencies (negative Signs) ******

                      1                      2                      3
                      A                      A                      A
 Frequencies --    -43.7615                38.8849                51.4717
 Red. masses --      4.9741                 5.5757                 5.3332
 Frc consts  --      0.0056                 0.0050                 0.0083
 IR Inten    --      1.8893                 1.8814                 1.7476

                      4                      5                      6
                      A                      A                      A
 Frequencies --     87.3874                97.4538               118.3508
 Red. masses --      6.0956                 6.2193                 5.9855
 Frc consts  --      0.0274                 0.0348                 0.0494
 IR Inten    --      6.6461                 5.8136                 2.9136

                      7                      8                      9
                      A                      A                      A
 Frequencies --    121.8379               163.0504               171.4797
 Red. masses --      3.9474                 6.5749                 4.7362
 Frc consts  --      0.0345                 0.1030                 0.0821
 IR Inten    --      7.9900                 8.5474                 0.5096

                     10                     11                     12
                      A                      A                      A
 Frequencies --    192.8677               204.8565               246.6919
 Red. masses --      4.6303                 2.7126                 1.3588
 Frc consts  --      0.1015                 0.0671                 0.0487
 IR Inten    --     17.5336                29.2626                45.5018

                     13                     14                     15
                      A                      A                      A
 Frequencies --    257.8608               273.6916               300.6435
 Red. masses --      1.2495                 2.0647                 2.2681
 Frc consts  --      0.0489                 0.0911                 0.1208
 IR Inten    --     73.0269                54.6030                62.1704

                     16                     17                     18
                      A                      A                      A
 Frequencies --    303.5515               313.4812               319.0131
 Red. masses --      1.9792                 3.4889                 1.4812
 Frc consts  --      0.1074                 0.2020                 0.0888
 IR Inten    --     17.1017                16.1414                22.5096

                     19                     20                     21
                      A                      A                      A
 Frequencies --    351.6796               367.4587               376.3153
 Red. masses --      2.4079                 3.1064                 1.4613
 Frc consts  --      0.1755                 0.2471                 0.1219
 IR Inten    --     16.0417                62.1400                24.6289

                     22                     23                     24
                      A                      A                      A
 Frequencies --    403.3711               436.5984               451.4676
 Red. masses --      5.1692                 3.1606                 1.4184
 Frc consts  --      0.4955                 0.3550                 0.1703
 IR Inten    --      2.8451                 8.7275                76.0703

                     25                     26                     27
                      A                      A                      A
 Frequencies --    464.8291               510.4099               519.0962
 Red. masses --      3.4832                 3.7950                 1.2381
 Frc consts  --      0.4434                 0.5825                 0.1966
 IR Inten    --     15.7651                20.8269                64.8429

                     28                     29                     30
                      A                      A                      A
 Frequencies --    538.8891               557.4005               579.0635
 Red. masses --      1.3230                 2.6020                 4.6095
 Frc consts  --      0.2264                 0.4763                 0.9107
 IR Inten    --    461.2981                92.7607                41.4143

                     31                     32                     33
                      A                      A                      A
 Frequencies --    677.2062               715.0456               740.3290
 Red. masses --      1.0946                 2.7757                 1.3824
 Frc consts  --      0.2958                 0.8361                 0.4464
 IR Inten    --    140.7193                 5.8495                52.2812

                     34                     35                     36
                      A                      A                      A
 Frequencies --    756.0949               840.0100               858.5802
 Red. masses --      2.8647                 1.3683                 2.2672
 Frc consts  --      0.9649                 0.5689                 0.9847
 IR Inten    --     59.3745               136.4590                84.4341

                     37                     38                     39
                      A                      A                      A
 Frequencies --    898.9946               935.6039              1009.8263
 Red. masses --      2.2846                 3.6290                 5.0988
 Frc consts  --      1.0879                 1.8716                 3.0635
 IR Inten    --     12.0848                92.7874               125.6113

                     40                     41                     42
                      A                      A                      A
 Frequencies --   1024.0112              1065.4799              1078.4103
 Red. masses --      2.6834                 3.3404                 5.9223
 Frc consts  --      1.6578                 2.2343                 4.0580
 IR Inten    --     16.5897                67.1855                97.4637

                     43                     44                     45
                      A                      A                      A
 Frequencies --   1085.6161              1111.1297              1126.1558
 Red. masses --      2.7435                 2.9554                 2.7104
 Frc consts  --      1.9051                 2.1498                 2.0253
 IR Inten    --     19.7389                81.2902                39.9232

                     46                     47                     48
                      A                      A                      A
 Frequencies --   1147.1625              1161.5874              1198.1234
 Red. masses --      3.7085                 4.3547                 2.5643
 Frc consts  --      2.8754                 3.4619                 2.1688
 IR Inten    --     95.8597                32.3149               157.7551

                     49                     50                     51
                      A                      A                      A
 Frequencies --   1219.7685              1244.3121              1259.9616
 Red. masses --      1.2558                 1.1416                 1.2300
 Frc consts  --      1.1008                 1.0414                 1.1504
 IR Inten    --     41.0313                 3.1509                46.2036

                     52                     53                     54
                      A                      A                      A
 Frequencies --   1273.1945              1315.7685              1341.2215
 Red. masses --      1.1479                 1.1669                 1.2756
 Frc consts  --      1.0964                 1.1903                 1.3520
 IR Inten    --     35.5940                 6.6231                28.9640

                     55                     56                     57
                      A                      A                      A
 Frequencies --   1344.5960              1360.2264              1382.1948
 Red. masses --      1.1998                 1.3664                 1.2824
 Frc consts  --      1.2780                 1.4896                 1.4435
 IR Inten    --      3.1017                 7.2683                21.9788

                     58                     59                     60
                      A                      A                      A
 Frequencies --   1391.8418              1398.3394              1422.5989
 Red. masses --      1.4387                 1.3003                 1.2276
 Frc consts  --      1.6421                 1.4980                 1.4637
 IR Inten    --     32.9825                 3.3983                14.1070

                     61                     62                     63
                      A                      A                      A
 Frequencies --   1450.4471              1463.4792              1466.8614
 Red. masses --      1.4142                 1.4970                 1.4751
 Frc consts  --      1.7529                 1.8890                 1.8700
 IR Inten    --     11.0054                69.4927                 4.0294

                     64                     65                     66
                      A                      A                      A
 Frequencies --   1493.5578              1518.6418              1553.4805
 Red. masses --      1.2290                 1.2734                 1.0856
 Frc consts  --      1.6153                 1.7303                 1.5435
 IR Inten    --     77.4112                40.6122                 5.8088

                     67                     68                     69
                      A                      A                      A
 Frequencies --   1725.8630              1729.0881              2956.4998
 Red. masses --      1.0743                 1.0785                 1.0813
 Frc consts  --      1.8854                 1.8998                 5.5686
 IR Inten    --     51.7661                90.8676                62.3658

                     70                     71                     72
                      A                      A                      A
 Frequencies --   3016.0214              3047.3348              3052.7416
 Red. masses --      1.0570                 1.0836                 1.0993
 Frc consts  --      5.6647                 5.9285                 6.0362
 IR Inten    --     32.3257                 7.8638                26.3681

                     73                     74                     75
                      A                      A                      A
 Frequencies --   3070.4923              3077.4854              3082.0100
 Red. masses --      1.0928                 1.0862                 1.0880
 Frc consts  --      6.0704                 6.0610                 6.0893
 IR Inten    --     44.7761                23.1761                70.9767

                     76                     77                     78
                      A                      A                      A
 Frequencies --   3452.9845              3565.0153              3615.8878
 Red. masses --      1.0667                 1.0572                 1.0636
 Frc consts  --      7.4937                 7.9164                 8.1933
 IR Inten    --    383.3348               544.6539                37.3765

                     79                     80                     81
                      A                      A                      A
 Frequencies --   3650.4571              3668.6150              3734.1377
 Red. masses --      1.0548                 1.0647                 1.0663
 Frc consts  --      8.2820                 8.4426                 8.7601
 IR Inten    --    201.1150                55.3319                27.7448

                     82                     83                     84
                      A                      A                      A
 Frequencies --   3765.3033              3798.4478              3798.7722
 Red. masses --      1.0667                 1.0714                 1.0745
 Frc consts  --      8.9106                 9.1077                 9.1360
 IR Inten    --     28.8453                96.7637                31.7257

 - Thermochemistry -
 -------------------
 Temperature   298.150 Kelvin.  Pressure   1.00000 Atm.
 Atom     1 has atomic number  1 and mass   1.00783

 Molecular mass:   216.08452 amu.
 Principal axes and moments of inertia in atomic units:
                           1         2         3
     Eigenvalues --  3057.130713170.392684189.15225
           X            0.99898  -0.04112   0.01887
           Y            0.04127   0.99912  -0.00745
           Z           -0.01855   0.00822   0.99979
 This molecule is an asymmetric top.
 Rotational symmetry number  1.
 Warning -- assumption of classical behavior for rotation
           may cause significant error
 Rotational temperatures (Kelvin)      0.02833     0.02732     0.02068
 Rotational constants (GHZ):           0.59034     0.56925     0.43081
    1 imaginary frequencies ignored.
 Zero-point vibrational energy     651702.6 (Joules/Mol)
                                  155.76066 (Kcal/Mol)
 Warning -- explicit consideration of  29 degrees of freedom as
           vibrations may cause significant error
 Vibrational temperatures:     55.95    74.06   125.73   140.21   170.28
          (Kelvin)            175.30   234.59   246.72   277.49   294.74
                              354.93   371.00   393.78   432.56   436.74
                              451.03   458.99   505.99   528.69   541.43
                              580.36   628.17   649.56   668.78   734.37
                              746.86   775.34   801.97   833.14   974.35
                             1028.79  1065.17  1087.85  1208.59  1235.30
                             1293.45  1346.12  1452.91  1473.32  1532.99
                             1551.59  1561.96  1598.67  1620.29  1650.51
                             1671.26  1723.83  1754.97  1790.29  1812.80
                             1831.84  1893.09  1929.72  1934.57  1957.06
                             1988.67  2002.55  2011.90  2046.80  2086.87
                             2105.62  2110.48  2148.89  2184.98  2235.11
                             2483.13  2487.77  4253.74  4339.38  4384.43
                             4392.21  4417.75  4427.81  4434.32  4968.07
                             5129.26  5202.45  5252.19  5278.31  5372.58
                             5417.42  5465.11  5465.58

 Zero-point correction=                           0.248220 (Hartree/Particle)
 Thermal correction to Energy=                    0.265219
 Thermal correction to Enthalpy=                  0.266163
 Thermal correction to Gibbs Free Energy=         0.204635
 Sum of electronic and zero-point Energies=           -839.736952
 Sum of electronic and thermal Energies=              -839.719953
 Sum of electronic and thermal Enthalpies=            -839.719009
 Sum of electronic and thermal Free Energies=         -839.780537

                     E (Thermal)             CV                S
                      KCal/Mol        Cal/Mol-Kelvin    Cal/Mol-Kelvin
 Total                  166.427             63.238            129.497
 Electronic               0.000              0.000              0.000
 Translational            0.889              2.981             42.015
 Rotational               0.889              2.981             32.074
 Vibrational            164.650             57.277             55.409
 Vibration     1          0.594              1.981              5.315
 Vibration     2          0.596              1.977              4.760
 Vibration     3          0.601              1.958              3.718
 Vibration     4          0.603              1.951              3.505
 Vibration     5          0.609              1.934              3.127
 Vibration     6          0.609              1.931              3.071
 Vibration     7          0.623              1.888              2.514
 Vibration     8          0.626              1.878              2.419
 Vibration     9          0.635              1.850              2.200
 Vibration    10          0.640              1.833              2.089
 Vibration    11          0.661              1.768              1.754
 Vibration    12          0.667              1.749              1.676
 Vibration    13          0.676              1.722              1.573
 Vibration    14          0.693              1.672              1.413
 Vibration    15          0.695              1.667              1.397
 Vibration    16          0.701              1.648              1.344
 Vibration    17          0.705              1.637              1.315
 Vibration    18          0.728              1.572              1.159
 Vibration    19          0.740              1.539              1.090
 Vibration    20          0.747              1.521              1.054
 Vibration    21          0.769              1.463              0.950
 Vibration    22          0.797              1.390              0.837
 Vibration    23          0.810              1.358              0.791
 Vibration    24          0.822              1.328              0.752
 Vibration    25          0.866              1.227              0.633
 Vibration    26          0.874              1.208              0.612
 Vibration    27          0.894              1.164              0.568
 Vibration    28          0.913              1.124              0.529
 Vibration    29          0.936              1.077              0.487

 Optimization completed.
    -- Stationary point found.
 Normal termination of Gaussian 09 at Mon Jan 30 07:30:48 2017.
