 Gaussian 09, Revision E.01,
 Gaussian 09:  ES64L-G09RevE.01 30-Nov-2015

 ----------------------------------------------------------------------
 # opt=(calcfc,ts,noeigentest,maxcycle=1000,cartesian) b3lyp 6-31g(d) f
 req
 ----------------------------------------------------------------------

 ------------------------------------------
 ./1/glo_2w_beta_boat1_b3lyp_631Gd_iopt.out
 ------------------------------------------
 Symbolic Z-matrix:
 Charge =  0 Multiplicity = 1

 SCF Done:  E(RB3LYP) =  -839.983652580     A.U. after   14 cycles
 Optimization completed.
    -- Stationary point found.
 Normal termination of Gaussian 09 at Mon Jan 30 07:09:01 2017.

 --------------------------------------------------------------------
 #N Geom=AllCheck Guess=TCheck SCRF=Check GenChk RB3LYP/6-31G(d) Freq
 --------------------------------------------------------------------

 Structure from the checkpoint file:  "/scratch/10499772.yak.local/Gau-19648.chk"
 ------------------------------------------
 ./1/glo_2w_beta_boat1_b3lyp_631Gd_iopt.out
 ------------------------------------------
 Charge =  0 Multiplicity = 1

                         Standard orientation:
 ---------------------------------------------------------------------
 Center     Atomic      Atomic             Coordinates (Angstroms)
 Number     Number       Type             X           Y           Z
 ---------------------------------------------------------------------
      1          1           0       -0.598470   -2.264142    0.202450
      2          6           0       -0.706390   -1.231902   -0.157350
      3          6           0       -1.345549    1.086939    0.726640
      4          6           0        0.934851    0.685368   -0.269410
      5          6           0       -0.343269    1.509738   -0.349950
      6          8           0        0.632520   -0.753492   -0.305250
      7          6           0       -1.492159   -0.442631    0.896720
      8          1           0        1.421551    0.860327    0.701080
      9          1           0       -0.784349    1.354848   -1.345150
     10          1           0       -2.552800   -0.714311    0.804410
     11          6           0       -1.431280   -1.352391   -1.505500
     12          1           0       -0.713340   -1.738742   -2.242450
     13          1           0       -1.797709   -0.380161   -1.860100
     14          8           0        1.764601    0.988357   -1.314440
     15          1           0        2.684781    0.732727   -1.048080
     16          1           0       -0.968819    1.472008    1.683720
     17          8           0       -2.513980   -2.254791   -1.286920
     18          1           0       -3.061360   -2.266911   -2.085860
     19          8           0       -0.001668    2.873148   -0.175790
     20          1           0       -0.848538    3.349338   -0.161930
     21          8           0       -2.568938    1.739669    0.373060
     22          1           0       -3.148718    1.733269    1.150470
     23          8           0       -1.001230   -0.736592    2.211150
     24          1           0       -1.143330   -1.683061    2.372950
     25          8           0        2.687530   -1.672353    1.257210
     26          1           0        1.881690   -1.496503    0.715410
     27          1           0        2.475410   -1.296943    2.125500
     28          8           0        4.141181    0.053616   -0.310670
     29          1           0        3.763581   -0.595524    0.334640
     30          1           0        4.573061   -0.497444   -0.980710
 ---------------------------------------------------------------------

 SCF Done:  E(RB3LYP) =  -839.983652579     A.U. after    1 cycles

 The electronic state is 1-A.
 Alpha  occ. eigenvalues --  -19.16462 -19.16304 -19.16161 -19.15884 -19.14901
 Alpha  occ. eigenvalues --  -19.14049 -19.13766 -19.12544 -10.28181 -10.25036
 Alpha  occ. eigenvalues --  -10.24721 -10.24449 -10.24041 -10.23596  -1.06280
 Alpha  occ. eigenvalues --   -1.04059  -1.03229  -1.02863  -1.01221  -1.00766
 Alpha  occ. eigenvalues --   -0.99788  -0.98506  -0.78667  -0.76604  -0.69571
 Alpha  occ. eigenvalues --   -0.64454  -0.63041  -0.56428  -0.56207  -0.53568
 Alpha  occ. eigenvalues --   -0.52921  -0.52221  -0.51418  -0.50825  -0.50122
 Alpha  occ. eigenvalues --   -0.47161  -0.46483  -0.45037  -0.44207  -0.43206
 Alpha  occ. eigenvalues --   -0.41855  -0.40116  -0.39632  -0.37916  -0.37131
 Alpha  occ. eigenvalues --   -0.35911  -0.35479  -0.34085  -0.33794  -0.32362
 Alpha  occ. eigenvalues --   -0.30731  -0.29700  -0.29012  -0.28686  -0.28136
 Alpha  occ. eigenvalues --   -0.26986  -0.26665  -0.26062
 Alpha virt. eigenvalues --    0.04457   0.05868   0.05967   0.07087   0.09272
 Alpha virt. eigenvalues --    0.10081   0.10403   0.11005   0.13042   0.13551
 Alpha virt. eigenvalues --    0.15698   0.16413   0.16822   0.17698   0.19717

 Mulliken charges:
               1
     1  H    0.139156
     2  C    0.115793
     3  C    0.083339
     4  C    0.344722
     5  C    0.097261
     6  O   -0.556087
     7  C    0.100442
     8  H    0.118241
     9  H    0.139848
    10  H    0.148501
    11  C   -0.066332
    12  H    0.149285
    13  H    0.143902
    14  O   -0.630004
    15  H    0.437879
    16  H    0.157932
    17  O   -0.626622
    18  H    0.401887
    19  O   -0.630391
    20  H    0.401444
    21  O   -0.646183
    22  H    0.401022
    23  O   -0.648152
    24  H    0.395403
    25  O   -0.820372
    26  H    0.443026
    27  H    0.399045
    28  O   -0.819479
    29  H    0.430494
    30  H    0.395001
 Sum of Mulliken charges =  -0.00000

 Dipole moment (field-independent basis, Debye):
    X=             -3.9424    Y=             -2.3284    Z=              0.8927  Tot=              4.6649
 Quadrupole moment (field-independent basis, Debye-Ang):
   XX=            -78.4447   YY=            -87.1282   ZZ=            -75.2983
   XY=             -5.9930   XZ=             -0.1299   YZ=              4.8712

  Exact polarizability: 102.883   1.445  93.503  -1.341  -1.359  87.683
 Approx polarizability: 131.594   2.508 126.143  -0.437  -4.839 124.997

 ******    1 imaginary frequencies (negative Signs) ******

                      1                      2                      3
                      A                      A                      A
 Frequencies --    -49.7001                24.9189                36.5648
 Red. masses --      5.3885                 5.5572                 5.1682
 Frc consts  --      0.0078                 0.0020                 0.0041
 IR Inten    --      2.2693                 0.7755                 1.0331

                      4                      5                      6
                      A                      A                      A
 Frequencies --     59.7994                85.3589                99.0626
 Red. masses --      6.6662                 4.3336                 5.3896
 Frc consts  --      0.0140                 0.0186                 0.0312
 IR Inten    --      1.2750                 7.8787                 6.6059

                      7                      8                      9
                      A                      A                      A
 Frequencies --    118.4763               171.9897               195.0679
 Red. masses --      5.5720                 2.8288                 4.9272
 Frc consts  --      0.0461                 0.0493                 0.1105
 IR Inten    --      2.0063                 6.7832                11.9390

                     10                     11                     12
                      A                      A                      A
 Frequencies --    209.1425               242.0522               248.0015
 Red. masses --      5.1825                 1.6159                 2.2353
 Frc consts  --      0.1336                 0.0558                 0.0810
 IR Inten    --      0.9011                79.8482                22.1681

                     13                     14                     15
                      A                      A                      A
 Frequencies --    260.7000               269.4824               272.0220
 Red. masses --      3.5951                 3.0340                 1.4571
 Frc consts  --      0.1440                 0.1298                 0.0635
 IR Inten    --     20.6406                32.5238               136.1835

                     16                     17                     18
                      A                      A                      A
 Frequencies --    292.4569               320.4735               341.2941
 Red. masses --      3.3420                 2.8208                 1.4422
 Frc consts  --      0.1684                 0.1707                 0.0990
 IR Inten    --      5.5624                 1.2615                25.9462

                     19                     20                     21
                      A                      A                      A
 Frequencies --    345.1319               358.6018               373.0349
 Red. masses --      1.1471                 1.3246                 1.2513
 Frc consts  --      0.0805                 0.1004                 0.1026
 IR Inten    --     81.4437               124.8568               152.2860

                     22                     23                     24
                      A                      A                      A
 Frequencies --    391.5855               401.2701               426.5757
 Red. masses --      3.6602                 2.7733                 1.3378
 Frc consts  --      0.3307                 0.2631                 0.1434
 IR Inten    --     19.1846                29.1974                88.0068

                     25                     26                     27
                      A                      A                      A
 Frequencies --    459.2917               478.3682               508.8478
 Red. masses --      4.8964                 5.1636                 3.0567
 Frc consts  --      0.6086                 0.6962                 0.4663
 IR Inten    --      4.1692                 7.0226                 2.9704

                     28                     29                     30
                      A                      A                      A
 Frequencies --    526.6878               547.1397               563.4355
 Red. masses --      1.2098                 5.2202                 4.8841
 Frc consts  --      0.1977                 0.9207                 0.9135
 IR Inten    --     40.0936                30.9752                19.9121

                     31                     32                     33
                      A                      A                      A
 Frequencies --    604.7818               743.5392               788.7837
 Red. masses --      3.4525                 1.0747                 3.3010
 Frc consts  --      0.7440                 0.3501                 1.2101
 IR Inten    --     24.9759                43.8331                16.0238

                     34                     35                     36
                      A                      A                      A
 Frequencies --    806.9444               853.9989               893.8312
 Red. masses --      1.1622                 3.5808                 3.9698
 Frc consts  --      0.4459                 1.5387                 1.8687
 IR Inten    --    142.9009                45.2740               176.0177

                     37                     38                     39
                      A                      A                      A
 Frequencies --    984.3620               991.5485              1030.4747
 Red. masses --      1.4353                 1.7614                 2.4180
 Frc consts  --      0.8194                 1.0203                 1.5128
 IR Inten    --     86.7146               176.8485               108.9056

                     40                     41                     42
                      A                      A                      A
 Frequencies --   1041.8933              1051.2959              1075.6398
 Red. masses --      3.5286                 3.0566                 5.9998
 Frc consts  --      2.2568                 1.9904                 4.0899
 IR Inten    --     71.3501                34.5771               106.2121

                     43                     44                     45
                      A                      A                      A
 Frequencies --   1083.9746              1097.3537              1099.8886
 Red. masses --      3.1885                 2.3960                 2.9956
 Frc consts  --      2.2074                 1.6999                 2.1352
 IR Inten    --     21.7437               132.8423                24.8610

                     46                     47                     48
                      A                      A                      A
 Frequencies --   1136.4445              1141.6303              1203.3466
 Red. masses --      2.2835                 4.8268                 2.3396
 Frc consts  --      1.7376                 3.7064                 1.9960
 IR Inten    --    109.8015                35.3323                96.1379

                     49                     50                     51
                      A                      A                      A
 Frequencies --   1224.4100              1244.0439              1246.1772
 Red. masses --      1.5067                 1.1357                 1.1338
 Frc consts  --      1.3308                 1.0356                 1.0374
 IR Inten    --     11.0606                 5.9925                55.9526

                     52                     53                     54
                      A                      A                      A
 Frequencies --   1263.9191              1273.0466              1324.3117
 Red. masses --      1.2142                 1.1587                 1.3884
 Frc consts  --      1.1428                 1.1064                 1.4346
 IR Inten    --     35.7604                19.8374                27.4234

                     55                     56                     57
                      A                      A                      A
 Frequencies --   1352.8384              1364.8245              1371.1107
 Red. masses --      1.1969                 1.2054                 1.4081
 Frc consts  --      1.2906                 1.3229                 1.5597
 IR Inten    --      4.3783                23.4661                37.9442

                     58                     59                     60
                      A                      A                      A
 Frequencies --   1381.1405              1399.4017              1407.2420
 Red. masses --      1.2853                 1.3082                 1.2208
 Frc consts  --      1.4446                 1.5094                 1.4244
 IR Inten    --     34.9316                15.1051                40.1744

                     61                     62                     63
                      A                      A                      A
 Frequencies --   1441.1230              1462.5070              1467.9318
 Red. masses --      1.5840                 1.3977                 1.4884
 Frc consts  --      1.9382                 1.7614                 1.8897
 IR Inten    --     10.2381                 5.5396                10.0953

                     64                     65                     66
                      A                      A                      A
 Frequencies --   1475.1659              1548.6775              1579.8652
 Red. masses --      1.4365                 1.0873                 1.3763
 Frc consts  --      1.8418                 1.5364                 2.0240
 IR Inten    --     11.7712                 6.2411                29.0270

                     67                     68                     69
                      A                      A                      A
 Frequencies --   1723.0073              1745.5742              3018.6865
 Red. masses --      1.0770                 1.0728                 1.0804
 Frc consts  --      1.8838                 1.9260                 5.8004
 IR Inten    --    101.1735                63.6174                 8.7125

                     70                     71                     72
                      A                      A                      A
 Frequencies --   3026.1826              3035.3595              3035.8425
 Red. masses --      1.0693                 1.0743                 1.0847
 Frc consts  --      5.7695                 5.8315                 5.8901
 IR Inten    --     24.3028                35.8787                19.6862

                     73                     74                     75
                      A                      A                      A
 Frequencies --   3043.1811              3048.5526              3076.2203
 Red. masses --      1.0859                 1.0862                 1.1057
 Frc consts  --      5.9248                 5.9476                 6.1651
 IR Inten    --     37.4917                74.6397                45.9627

                     76                     77                     78
                      A                      A                      A
 Frequencies --   3334.0349              3426.7026              3481.9150
 Red. masses --      1.0659                 1.0631                 1.0593
 Frc consts  --      6.9807                 7.3546                 7.5666
 IR Inten    --    261.9783              1218.5234               556.9088

                     79                     80                     81
                      A                      A                      A
 Frequencies --   3727.9171              3734.6555              3747.0423
 Red. masses --      1.0655                 1.0661                 1.0665
 Frc consts  --      8.7248                 8.7605                 8.8224
 IR Inten    --     27.9904                13.4328                23.7411

                     82                     83                     84
                      A                      A                      A
 Frequencies --   3764.8314              3792.9618              3795.5245
 Red. masses --      1.0667                 1.0681                 1.0676
 Frc consts  --      8.9079                 9.0533                 9.0619
 IR Inten    --     25.3127                59.1471                40.1430

 - Thermochemistry -
 -------------------
 Temperature   298.150 Kelvin.  Pressure   1.00000 Atm.
 Atom     1 has atomic number  1 and mass   1.00783

 Molecular mass:   216.08452 amu.
 Principal axes and moments of inertia in atomic units:
                           1         2         3
     Eigenvalues --  2545.763523892.715414708.43552
           X            0.99992  -0.01117   0.00638
           Y            0.01109   0.99987   0.01160
           Z           -0.00651  -0.01152   0.99991
 This molecule is an asymmetric top.
 Rotational symmetry number  1.
 Warning -- assumption of classical behavior for rotation
           may cause significant error
 Rotational temperatures (Kelvin)      0.03402     0.02225     0.01840
 Rotational constants (GHZ):           0.70892     0.46362     0.38330
    1 imaginary frequencies ignored.
 Zero-point vibrational energy     649826.4 (Joules/Mol)
                                  155.31224 (Kcal/Mol)
 Warning -- explicit consideration of  30 degrees of freedom as
           vibrations may cause significant error
 Vibrational temperatures:     35.85    52.61    86.04   122.81   142.53
          (Kelvin)            170.46   247.45   280.66   300.91   348.26
                              356.82   375.09   387.72   391.38   420.78
                              461.09   491.05   496.57   515.95   536.71
                              563.40   577.34   613.75   660.82   688.26
                              732.12   757.79   787.21   810.66   870.15
                             1069.79  1134.88  1161.01  1228.71  1286.02
                             1416.28  1426.62  1482.62  1499.05  1512.58
                             1547.60  1559.60  1578.85  1582.49  1635.09
                             1642.55  1731.35  1761.65  1789.90  1792.97
                             1818.50  1831.63  1905.39  1946.43  1963.68
                             1972.72  1987.15  2013.42  2024.70  2073.45
                             2104.22  2112.02  2122.43  2228.20  2273.07
                             2479.02  2511.49  4343.21  4354.00  4367.20
                             4367.89  4378.45  4386.18  4425.99  4796.93
                             4930.25  5009.69  5363.63  5373.33  5391.15
                             5416.75  5457.22  5460.91

 Zero-point correction=                           0.247506 (Hartree/Particle)
 Thermal correction to Energy=                    0.264681
 Thermal correction to Enthalpy=                  0.265625
 Thermal correction to Gibbs Free Energy=         0.202752
 Sum of electronic and zero-point Energies=           -839.736147
 Sum of electronic and thermal Energies=              -839.718972
 Sum of electronic and thermal Enthalpies=            -839.718028
 Sum of electronic and thermal Free Energies=         -839.780900

                     E (Thermal)             CV                S
                      KCal/Mol        Cal/Mol-Kelvin    Cal/Mol-Kelvin
 Total                  166.090             63.319            132.327
 Electronic               0.000              0.000              0.000
 Translational            0.889              2.981             42.015
 Rotational               0.889              2.981             32.212
 Vibrational            164.312             57.358             58.100
 Vibration     1          0.593              1.985              6.198
 Vibration     2          0.594              1.982              5.437
 Vibration     3          0.597              1.973              4.464
 Vibration     4          0.601              1.959              3.764
 Vibration     5          0.604              1.950              3.473
 Vibration     6          0.609              1.934              3.125
 Vibration     7          0.626              1.877              2.414
 Vibration     8          0.636              1.847              2.179
 Vibration     9          0.642              1.827              2.051
 Vibration    10          0.658              1.776              1.788
 Vibration    11          0.662              1.766              1.745
 Vibration    12          0.669              1.745              1.657
 Vibration    13          0.674              1.729              1.600
 Vibration    14          0.675              1.725              1.583
 Vibration    15          0.688              1.688              1.460
 Vibration    16          0.706              1.634              1.308
 Vibration    17          0.721              1.593              1.206
 Vibration    18          0.724              1.585              1.188
 Vibration    19          0.733              1.558              1.128
 Vibration    20          0.744              1.527              1.067
 Vibration    21          0.759              1.488              0.994
 Vibration    22          0.767              1.467              0.958
 Vibration    23          0.788              1.412              0.870
 Vibration    24          0.817              1.340              0.768
 Vibration    25          0.835              1.298              0.714
 Vibration    26          0.864              1.230              0.636
 Vibration    27          0.882              1.191              0.595
 Vibration    28          0.902              1.146              0.550
 Vibration    29          0.919              1.110              0.517
 Vibration    30          0.963              1.022              0.442

 Optimization completed.
    -- Stationary point found.
 Normal termination of Gaussian 09 at Mon Jan 30 07:27:09 2017.
