 Gaussian 09, Revision E.01,
 Gaussian 09:  ES64L-G09RevE.01 30-Nov-2015

 -------------------------------------
 # b3lyp/6-31g(d) irc=(calcfc,forward)
 -------------------------------------

 ---------------------------------
 glo_1w_alpha_ts_boat2_B3LYP_631Gd
 ---------------------------------
 Symbolic Z-matrix:
 Charge =  0 Multiplicity = 1

 SCF Done:  E(RB3LYP) =  -839.960269526     A.U. after   14 cycles
 SCF Done:  E(RB3LYP) =  -839.960672769     A.U. after   11 cycles
 SCF Done:  E(RB3LYP) =  -839.961936030     A.U. after   11 cycles
 SCF Done:  E(RB3LYP) =  -839.964022174     A.U. after   11 cycles
 SCF Done:  E(RB3LYP) =  -839.966725117     A.U. after   12 cycles
 SCF Done:  E(RB3LYP) =  -839.969695954     A.U. after   12 cycles
 SCF Done:  E(RB3LYP) =  -839.972498686     A.U. after   12 cycles
 SCF Done:  E(RB3LYP) =  -839.974833477     A.U. after   11 cycles
 SCF Done:  E(RB3LYP) =  -839.976803735     A.U. after   11 cycles
 SCF Done:  E(RB3LYP) =  -839.978580607     A.U. after   10 cycles
 SCF Done:  E(RB3LYP) =  -839.980238051     A.U. after   10 cycles

                          Input orientation:
 ---------------------------------------------------------------------
 Center     Atomic      Atomic             Coordinates (Angstroms)
 Number     Number       Type             X           Y           Z
 ---------------------------------------------------------------------
      1          6           0       -1.450292   -1.261424   -0.403584
      2          8           0       -1.157973    0.259791   -0.825639
      3          1           0       -3.995983    0.615221   -1.523957
      4          8           0       -3.539929    0.685979   -0.671416
      5          1           0       -2.564715    0.774688   -0.881198
      6          6           0        1.063178    0.361506   -0.086279
      7          6           0       -0.312743    1.012585    0.063029
      8          1           0        1.398623    0.543365   -1.111130
      9          1           0       -0.670124    0.938964    1.096547
     10          8           0        2.057016    1.010505    0.744899
     11          1           0        1.856143    0.781487    1.669135
     12          6           0       -0.315765    2.499871   -0.343590
     13          8           0        0.399698    3.300713    0.581903
     14          1           0       -1.346293    2.870270   -0.347845
     15          1           0        0.079618    2.597415   -1.368802
     16          1           0        1.283799    2.900814    0.660985
     17          1           0       -1.441862   -1.719213   -1.397717
     18          8           0       -2.634182   -1.350160    0.260436
     19          1           0       -3.259850   -0.634856   -0.101284
     20          8           0        4.011631   -0.576333   -0.627066
     21          1           0        4.422497   -0.062702   -1.338328
     22          1           0        3.599146    0.089863   -0.040088
     23          6           0        1.061750   -1.183286    0.119134
     24          1           0        1.709928   -1.395115    0.985271
     25          6           0       -0.310611   -1.755004    0.497537
     26          1           0       -0.247150   -2.849262    0.396884
     27          8           0       -0.573434   -1.380950    1.839661
     28          1           0       -1.548941   -1.361148    1.902796
     29          8           0        1.525532   -1.861504   -1.029131
     30          1           0        2.470848   -1.609942   -1.112519
 ---------------------------------------------------------------------

 Alpha  occ. eigenvalues --  -19.19437 -19.17465 -19.16164 -19.15689 -19.15217
 Alpha  occ. eigenvalues --  -19.14786 -19.14067 -19.13456 -10.30259 -10.25215
 Alpha  occ. eigenvalues --  -10.24631 -10.24523 -10.24469 -10.23667  -1.07703
 Alpha  occ. eigenvalues --   -1.06008  -1.02933  -1.02073  -1.01654  -1.01186
 Alpha  occ. eigenvalues --   -1.00712  -1.00386  -0.77742  -0.76426  -0.69462
 Alpha  occ. eigenvalues --   -0.66057  -0.62533  -0.58080  -0.55956  -0.54936
 Alpha  occ. eigenvalues --   -0.54190  -0.53724  -0.52526  -0.51641  -0.48997
 Alpha  occ. eigenvalues --   -0.48285  -0.46842  -0.44663  -0.44136  -0.43086
 Alpha  occ. eigenvalues --   -0.41854  -0.41136  -0.40161  -0.39802  -0.38517
 Alpha  occ. eigenvalues --   -0.37368  -0.36047  -0.35587  -0.34745  -0.33295
 Alpha  occ. eigenvalues --   -0.31926  -0.31085  -0.30468  -0.29164  -0.28831
 Alpha  occ. eigenvalues --   -0.27476  -0.26587  -0.25356
 Alpha virt. eigenvalues --    0.03749   0.05541   0.06355   0.06974   0.09289
 Alpha virt. eigenvalues --    0.10349   0.11307   0.12327   0.12610   0.14345
 Alpha virt. eigenvalues --    0.15861   0.16679   0.17642   0.18394   0.19222

 Mulliken charges:
               1
     1  C    0.327338
     2  O   -0.612920
     3  H    0.398118
     4  O   -0.819139
     5  H    0.450957
     6  C    0.081715
     7  C    0.100004
     8  H    0.156836
     9  H    0.154171
    10  O   -0.659319
    11  H    0.416825
    12  C   -0.043879
    13  O   -0.633136
    14  H    0.158297
    15  H    0.121524
    16  H    0.406458
    17  H    0.158004
    18  O   -0.651730
    19  H    0.451240
    20  O   -0.806477
    21  H    0.399281
    22  H    0.426647
    23  C    0.122350
    24  H    0.132309
    25  C    0.088952
    26  H    0.155768
    27  O   -0.660779
    28  H    0.420715
    29  O   -0.669876
    30  H    0.429744
 Sum of Mulliken charges =  -0.00000

 Dipole moment (field-independent basis, Debye):
    X=              0.7251    Y=              0.6856    Z=             -2.1172  Tot=              2.3406
 Quadrupole moment (field-independent basis, Debye-Ang):
   XX=            -75.1548   YY=            -97.6921   ZZ=            -79.0449
   XY=              6.9525   XZ=              4.8375   YZ=             -3.3909

  Exact polarizability:   0.000   0.000   0.000   0.000   0.000   0.000
 Approx polarizability: 135.744   3.040 129.633  -0.228   2.843 129.245

 Normal termination of Gaussian 09 at Sat Jan 14 01:13:09 2017.
